PSF

       1 !NTITLE
 REMARKS VMD-generated NAMD/X-Plor PSF structure file

    3640 !NATOM
       1      1         6    6           -0.1268       12.0112       0
       2      1         6    6                 0       12.0112       0
       3      1         6    6            0.0265       12.0112       0
       4      1         6    6                 0       12.0112       0
       5      1         6    6           -0.1268       12.0112       0
       6      1         6    6                 0       12.0112       0
       7      1         6    6            -0.012       12.0112       0
       8      1         6    6           -0.1268       12.0112       0
       9      1         6    6                 0       12.0112       0
      10      1         6    6                 0       12.0112       0
      11      1         6    6                 0       12.0112       0
      12      1         6    6           -0.1268       12.0112       0
      13      1         6    6                 0       12.0112       0
      14      1         6    6            0.0827       12.0112       0
      15      1         6    6            0.0265       12.0112       0
      16      1         6    6           -0.1268       12.0112       0
      17      1         19   19          -0.1272        32.064       0
      18      1         16   16          -0.0265       15.9994       0
      19      1         2    2            -0.106       12.0112       0
      20      1         6    6                 0       12.0112       0
      21      1         6    6                 0       12.0112       0
      22      1         6    6            0.0265       12.0112       0
      23      1         6    6                 0       12.0112       0
      24      1         6    6           -0.1268       12.0112       0
      25      1         6    6           -0.1268       12.0112       0
      26      1         6    6                 0       12.0112       0
      27      1         6    6            0.0265       12.0112       0
      28      1         6    6                 0       12.0112       0
      29      1         6    6                 0       12.0112       0
      30      1         2    2            -0.106       12.0112       0
      31      1         1    1            -0.053       12.0112       0
      32      1         6    6            0.3964       12.0112       0
      33      1         2    2            -0.106       12.0112       0
      34      1         14   14          -0.3964       15.9994       0
      35      1         15   15           -0.053       15.9994       0
      36      1         11   11          -0.5801       14.0067       0
      37      1         16   16          -0.0265       15.9994       0
      38      1         16   16          -0.0265       15.9994       0
      39      1         3    3            -0.159       12.0112       0
      40      1         6    6            0.0265       12.0112       0
      41      1         6    6            0.0265       12.0112       0
      42      1         6    6           -0.1268       12.0112       0
      43      1         6    6                 0       12.0112       0
      44      1         6    6                 0       12.0112       0
      45      1         6    6            -0.013       12.0112       0
      46      1         16   16          -0.0265       15.9994       0
      47      1         6    6                 0       12.0112       0
      48      1         20   20            0.026        32.064       0
      49      1         6    6           -0.1268       12.0112       0
      50      1         6    6           -0.1268       12.0112       0
      51      1         6    6            0.0265       12.0112       0
      52      1         6    6            -0.013       12.0112       0
      53      1         6    6                 0       12.0112       0
      54      1         15   15           -0.053       15.9994       0
      55      1         4    4            0.0265       12.0112       0
      56      1         4    4           -0.1268       12.0112       0
      57      1         4    4                 0       12.0112       0
      58      1         2    2            -0.106       12.0112       0
      59      1         4    4           -0.1268       12.0112       0
      60      1         3    3            -0.159       12.0112       0
      61      1         2    2            -0.106       12.0112       0
      62      1         2    2            -0.106       12.0112       0
      63      1         6    6                 0       12.0112       0
      64      1         6    6             0.267       12.0112       0
      65      1         6    6                 0       12.0112       0
      66      1         12   12           -0.481       14.0067       0
      67      1         6    6           -0.1268       12.0112       0
      68      1         6    6             0.267       12.0112       0
      69      1         3    3            -0.159       12.0112       0
      70      1         5    5            0.1465       12.0112       0
      71      1         13   13            -0.12       15.9994       0
      72      1         16   16          -0.0265       15.9994       0
      73      1         15   15           -0.053       15.9994       0
      74      1         15   15          -0.1595       15.9994       0
      75      1         2    2             0.027       12.0112       0
      76      1         6    6                 0       12.0112       0
      77      1         6    6            0.0827       12.0112       0
      78      1         6    6            0.0265       12.0112       0
      79      1         6    6                 0       12.0112       0
      80      1         6    6           -0.1268       12.0112       0
      81      1         6    6           -0.1268       12.0112       0
      82      1         11   11          -0.4141       14.0067       0
      83      1         6    6            0.0827       12.0112       0
      84      1         6    6                 0       12.0112       0
      85      1         6    6           -0.1268       12.0112       0
      86      1         6    6            0.0265       12.0112       0
      87      1         6    6                 0       12.0112       0
      88      1         6    6           -0.1268       12.0112       0
      89      1         16   16          -0.0265       15.9994       0
      90      1         3    3            -0.159       12.0112       0
      91      1         16   16          -0.0265       15.9994       0
      92      1         6    6            0.0265       12.0112       0
      93      1         6    6            0.0265       12.0112       0
      94      1         6    6           -0.1268       12.0112       0
      95      1         6    6                 0       12.0112       0
      96      1         6    6           -0.1268       12.0112       0
      97      1         6    6                 0       12.0112       0
      98      1         15   15          -0.1595       15.9994       0
      99      1         2    2             0.027       12.0112       0
     100      1         6    6                 0       12.0112       0
     101      1         6    6                 0       12.0112       0
     102      1         6    6            0.0283       12.0112       0
     103      1         6    6           -0.1268       12.0112       0
     104      1         6    6            0.0265       12.0112       0
     105      1         6    6                 0       12.0112       0
     106      1         17   17          -0.0566       15.9994       0
     107      1         6    6            0.0283       12.0112       0
     108      1         6    6                 0       12.0112       0
     109      1         6    6           -0.1268       12.0112       0
     110      1         6    6            0.0265       12.0112       0
     111      1         6    6           -0.1268       12.0112       0
     112      1         6    6            0.0265       12.0112       0
     113      1         16   16          -0.0265       15.9994       0
     114      1         15   15           -0.053       15.9994       0
     115      1         6    6            0.0265       12.0112       0
     116      1         6    6           -0.1268       12.0112       0
     117      1         6    6           -0.1268       12.0112       0
     118      1         6    6                 0       12.0112       0
     119      1         6    6           -0.1268       12.0112       0
     120      1         6    6           -0.1268       12.0112       0
     121      1         6    6                 0       12.0112       0
     122      1         6    6            0.0265       12.0112       0
     123      1         6    6           -0.1268       12.0112       0
     124      1         6    6           -0.1268       12.0112       0
     125      1         6    6           -0.1268       12.0112       0
     126      1         6    6           -0.1268       12.0112       0
     127      1         16   16          -0.0265       15.9994       0
     128      1         16   16          -0.0265       15.9994       0
     129      1         2    2            -0.106       12.0112       0
     130      1         4    4                 0       12.0112       0
     131      1         2    2            -0.106       12.0112       0
     132      1         4    4           -0.1268       12.0112       0
     133      1         4    4           -0.1268       12.0112       0
     134      1         4    4           -0.1268       12.0112       0
     135      1         2    2            -0.106       12.0112       0
     136      1         1    1            -0.053       12.0112       0
     137      1         1    1            -0.053       12.0112       0
     138      1         2    2            -0.106       12.0112       0
     139      1         1    1            -0.053       12.0112       0
     140      1         1    1            -0.053       12.0112       0
     141      1         2    2            -0.106       12.0112       0
     142      1         2    2            -0.106       12.0112       0
     143      1         2    2            -0.106       12.0112       0
     144      1         2    2            -0.106       12.0112       0
     145      1         2    2            -0.106       12.0112       0
     146      1         6    6                 0       12.0112       0
     147      1         6    6            -0.012       12.0112       0
     148      1         6    6           -0.1268       12.0112       0
     149      1         6    6                 0       12.0112       0
     150      1         6    6           -0.1268       12.0112       0
     151      1         6    6                 0       12.0112       0
     152      1         6    6                 0       12.0112       0
     153      1         6    6           -0.1268       12.0112       0
     154      1         6    6                 0       12.0112       0
     155      1         6    6                 0       12.0112       0
     156      1         6    6                 0       12.0112       0
     157      1         6    6                 0       12.0112       0
     158      1         6    6           -0.1268       12.0112       0
     159      1         6    6           -0.1268       12.0112       0
     160      1         18   18            0.024        32.064       0
     161      1         3    3            -0.159       12.0112       0
     162      1         6    6                 0       12.0112       0
     163      1         6    6                 0       12.0112       0
     164      1         6    6           -0.1268       12.0112       0
     165      1         6    6           -0.1268       12.0112       0
     166      1         6    6           -0.1268       12.0112       0
     167      1         6    6                 0       12.0112       0
     168      1         6    6           -0.1268       12.0112       0
     169      1         6    6           -0.1268       12.0112       0
     170      1         2    2            -0.106       12.0112       0
     171      1         2    2            -0.106       12.0112       0
     172      1         2    2            -0.106       12.0112       0
     173      1         6    6                 0       12.0112       0
     174      1         6    6                 0       12.0112       0
     175      1         6    6                 0       12.0112       0
     176      1         6    6                 0       12.0112       0
     177      1         6    6                 0       12.0112       0
     178      1         6    6                 0       12.0112       0
     179      1         6    6           -0.1268       12.0112       0
     180      1         6    6           -0.1268       12.0112       0
     181      1         6    6                 0       12.0112       0
     182      1         6    6                 0       12.0112       0
     183      1         3    3            -0.159       12.0112       0
     184      1         3    3            -0.159       12.0112       0
     185      1         6    6                 0       12.0112       0
     186      1         6    6            0.0265       12.0112       0
     187      1         6    6           -0.1268       12.0112       0
     188      1         6    6                 0       12.0112       0
     189      1         6    6                 0       12.0112       0
     190      1         6    6           -0.1268       12.0112       0
     191      1         6    6           -0.1268       12.0112       0
     192      1         6    6                 0       12.0112       0
     193      1         6    6           -0.1268       12.0112       0
     194      1         6    6                 0       12.0112       0
     195      1         1    1            -0.053       12.0112       0
     196      1         1    1            -0.053       12.0112       0
     197      1         2    2            -0.106       12.0112       0
     198      1         2    2            -0.106       12.0112       0
     199      1         2    2            -0.106       12.0112       0
     200      1         1    1              0.08       12.0112       0
     201      1         2    2            -0.106       12.0112       0
     202      1         2    2            -0.106       12.0112       0
     203      1         16   16           -0.133       15.9994       0
     204      1         16   16          -0.0265       15.9994       0
     205      1         6    6            -0.012       12.0112       0
     206      1         6    6                 0       12.0112       0
     207      1         6    6                 0       12.0112       0
     208      1         6    6           -0.1268       12.0112       0
     209      1         6    6           -0.1268       12.0112       0
     210      1         6    6           -0.1268       12.0112       0
     211      1         4    4           -0.1268       12.0112       0
     212      1         2    2            -0.106       12.0112       0
     213      1         4    4           -0.1268       12.0112       0
     214      1         7    7            0.1268       1.00797       0
     215      1         7    7            0.1268       1.00797       0
     216      1         7    7            0.1268       1.00797       0
     217      1         7    7            0.1268       1.00797       0
     218      1         7    7            0.1268       1.00797       0
     219      1         10   10           0.1392       1.00797       0
     220      1         9    9                 0         1.008       0
     221      1         7    7             0.053       1.00797       0
     222      1         7    7             0.053       1.00797       0
     223      1         7    7            0.1268       1.00797       0
     224      1         7    7            0.1268       1.00797       0
     225      1         7    7             0.053       1.00797       0
     226      1         7    7             0.053       1.00797       0
     227      1         7    7             0.053       1.00797       0
     228      1         7    7             0.053       1.00797       0
     229      1         7    7             0.053       1.00797       0
     230      1         8    8            0.2487       1.00797       0
     231      1         8    8            0.2487       1.00797       0
     232      1         9    9                 0         1.008       0
     233      1         9    9                 0         1.008       0
     234      1         7    7             0.053       1.00797       0
     235      1         7    7             0.053       1.00797       0
     236      1         7    7             0.053       1.00797       0
     237      1         7    7            0.1268       1.00797       0
     238      1         9    9                 0         1.008       0
     239      1         7    7            0.1268       1.00797       0
     240      1         7    7            0.1268       1.00797       0
     241      1         7    7            0.1268       1.00797       0
     242      1         7    7             0.053       1.00797       0
     243      1         7    7             0.053       1.00797       0
     244      1         7    7            0.1268       1.00797       0
     245      1         7    7             0.053       1.00797       0
     246      1         7    7             0.053       1.00797       0
     247      1         7    7             0.053       1.00797       0
     248      1         7    7             0.053       1.00797       0
     249      1         7    7             0.053       1.00797       0
     250      1         7    7             0.053       1.00797       0
     251      1         7    7             0.053       1.00797       0
     252      1         7    7            0.1268       1.00797       0
     253      1         7    7             0.053       1.00797       0
     254      1         7    7             0.053       1.00797       0
     255      1         7    7             0.053       1.00797       0
     256      1         9    9                 0         1.008       0
     257      1         7    7             0.053       1.00797       0
     258      1         7    7             0.053       1.00797       0
     259      1         7    7            0.1268       1.00797       0
     260      1         7    7            0.1268       1.00797       0
     261      1         8    8            0.2487       1.00797       0
     262      1         7    7            0.1268       1.00797       0
     263      1         7    7            0.1268       1.00797       0
     264      1         9    9                 0         1.008       0
     265      1         7    7             0.053       1.00797       0
     266      1         7    7             0.053       1.00797       0
     267      1         7    7             0.053       1.00797       0
     268      1         9    9                 0         1.008       0
     269      1         7    7            0.1268       1.00797       0
     270      1         7    7            0.1268       1.00797       0
     271      1         7    7             0.053       1.00797       0
     272      1         7    7             0.053       1.00797       0
     273      1         7    7            0.1268       1.00797       0
     274      1         7    7            0.1268       1.00797       0
     275      1         7    7            0.1268       1.00797       0
     276      1         9    9                 0         1.008       0
     277      1         7    7            0.1268       1.00797       0
     278      1         7    7            0.1268       1.00797       0
     279      1         7    7            0.1268       1.00797       0
     280      1         7    7            0.1268       1.00797       0
     281      1         7    7            0.1268       1.00797       0
     282      1         7    7            0.1268       1.00797       0
     283      1         7    7            0.1268       1.00797       0
     284      1         7    7            0.1268       1.00797       0
     285      1         9    9                 0         1.008       0
     286      1         9    9                 0         1.008       0
     287      1         7    7             0.053       1.00797       0
     288      1         7    7             0.053       1.00797       0
     289      1         7    7             0.053       1.00797       0
     290      1         7    7             0.053       1.00797       0
     291      1         7    7            0.1268       1.00797       0
     292      1         7    7            0.1268       1.00797       0
     293      1         7    7            0.1268       1.00797       0
     294      1         7    7             0.053       1.00797       0
     295      1         7    7             0.053       1.00797       0
     296      1         7    7             0.053       1.00797       0
     297      1         7    7             0.053       1.00797       0
     298      1         7    7             0.053       1.00797       0
     299      1         7    7             0.053       1.00797       0
     300      1         7    7             0.053       1.00797       0
     301      1         7    7             0.053       1.00797       0
     302      1         7    7             0.053       1.00797       0
     303      1         7    7             0.053       1.00797       0
     304      1         7    7             0.053       1.00797       0
     305      1         7    7             0.053       1.00797       0
     306      1         7    7             0.053       1.00797       0
     307      1         7    7             0.053       1.00797       0
     308      1         7    7             0.053       1.00797       0
     309      1         7    7             0.053       1.00797       0
     310      1         7    7             0.053       1.00797       0
     311      1         7    7             0.053       1.00797       0
     312      1         7    7            0.1268       1.00797       0
     313      1         7    7            0.1268       1.00797       0
     314      1         7    7            0.1268       1.00797       0
     315      1         7    7            0.1268       1.00797       0
     316      1         7    7            0.1268       1.00797       0
     317      1         7    7             0.053       1.00797       0
     318      1         7    7             0.053       1.00797       0
     319      1         7    7             0.053       1.00797       0
     320      1         7    7            0.1268       1.00797       0
     321      1         7    7            0.1268       1.00797       0
     322      1         7    7            0.1268       1.00797       0
     323      1         7    7            0.1268       1.00797       0
     324      1         7    7            0.1268       1.00797       0
     325      1         7    7             0.053       1.00797       0
     326      1         7    7             0.053       1.00797       0
     327      1         7    7             0.053       1.00797       0
     328      1         7    7             0.053       1.00797       0
     329      1         7    7             0.053       1.00797       0
     330      1         7    7             0.053       1.00797       0
     331      1         7    7            0.1268       1.00797       0
     332      1         7    7            0.1268       1.00797       0
     333      1         7    7             0.053       1.00797       0
     334      1         7    7             0.053       1.00797       0
     335      1         7    7             0.053       1.00797       0
     336      1         7    7             0.053       1.00797       0
     337      1         7    7             0.053       1.00797       0
     338      1         7    7             0.053       1.00797       0
     339      1         7    7            0.1268       1.00797       0
     340      1         7    7            0.1268       1.00797       0
     341      1         7    7            0.1268       1.00797       0
     342      1         7    7            0.1268       1.00797       0
     343      1         7    7             0.053       1.00797       0
     344      1         7    7             0.053       1.00797       0
     345      1         7    7             0.053       1.00797       0
     346      1         7    7             0.053       1.00797       0
     347      1         7    7             0.053       1.00797       0
     348      1         7    7             0.053       1.00797       0
     349      1         7    7             0.053       1.00797       0
     350      1         7    7             0.053       1.00797       0
     351      1         7    7             0.053       1.00797       0
     352      1         7    7             0.053       1.00797       0
     353      1         7    7             0.053       1.00797       0
     354      1         7    7             0.053       1.00797       0
     355      1         7    7             0.053       1.00797       0
     356      1         9    9                 0         1.008       0
     357      1         9    9                 0         1.008       0
     358      1         7    7            0.1268       1.00797       0
     359      1         7    7            0.1268       1.00797       0
     360      1         7    7            0.1268       1.00797       0
     361      1         7    7            0.1268       1.00797       0
     362      1         7    7             0.053       1.00797       0
     363      1         7    7             0.053       1.00797       0
     364      1         7    7            0.1268       1.00797       0
     365      2         6    6           -0.1268       12.0112       0
     366      2         6    6                 0       12.0112       0
     367      2         6    6            0.0265       12.0112       0
     368      2         6    6                 0       12.0112       0
     369      2         6    6           -0.1268       12.0112       0
     370      2         6    6                 0       12.0112       0
     371      2         6    6            -0.012       12.0112       0
     372      2         6    6           -0.1268       12.0112       0
     373      2         6    6                 0       12.0112       0
     374      2         6    6                 0       12.0112       0
     375      2         6    6                 0       12.0112       0
     376      2         6    6           -0.1268       12.0112       0
     377      2         6    6                 0       12.0112       0
     378      2         6    6            0.0827       12.0112       0
     379      2         6    6            0.0265       12.0112       0
     380      2         6    6           -0.1268       12.0112       0
     381      2         19   19          -0.1272        32.064       0
     382      2         16   16          -0.0265       15.9994       0
     383      2         2    2            -0.106       12.0112       0
     384      2         6    6                 0       12.0112       0
     385      2         6    6                 0       12.0112       0
     386      2         6    6            0.0265       12.0112       0
     387      2         6    6                 0       12.0112       0
     388      2         6    6           -0.1268       12.0112       0
     389      2         6    6           -0.1268       12.0112       0
     390      2         6    6                 0       12.0112       0
     391      2         6    6            0.0265       12.0112       0
     392      2         6    6                 0       12.0112       0
     393      2         6    6                 0       12.0112       0
     394      2         2    2            -0.106       12.0112       0
     395      2         1    1            -0.053       12.0112       0
     396      2         6    6            0.3964       12.0112       0
     397      2         2    2            -0.106       12.0112       0
     398      2         14   14          -0.3964       15.9994       0
     399      2         15   15           -0.053       15.9994       0
     400      2         11   11          -0.5801       14.0067       0
     401      2         16   16          -0.0265       15.9994       0
     402      2         16   16          -0.0265       15.9994       0
     403      2         3    3            -0.159       12.0112       0
     404      2         6    6            0.0265       12.0112       0
     405      2         6    6            0.0265       12.0112       0
     406      2         6    6           -0.1268       12.0112       0
     407      2         6    6                 0       12.0112       0
     408      2         6    6                 0       12.0112       0
     409      2         6    6            -0.013       12.0112       0
     410      2         16   16          -0.0265       15.9994       0
     411      2         6    6                 0       12.0112       0
     412      2         20   20            0.026        32.064       0
     413      2         6    6           -0.1268       12.0112       0
     414      2         6    6           -0.1268       12.0112       0
     415      2         6    6            0.0265       12.0112       0
     416      2         6    6            -0.013       12.0112       0
     417      2         6    6                 0       12.0112       0
     418      2         15   15           -0.053       15.9994       0
     419      2         4    4            0.0265       12.0112       0
     420      2         4    4           -0.1268       12.0112       0
     421      2         4    4                 0       12.0112       0
     422      2         2    2            -0.106       12.0112       0
     423      2         4    4           -0.1268       12.0112       0
     424      2         3    3            -0.159       12.0112       0
     425      2         2    2            -0.106       12.0112       0
     426      2         2    2            -0.106       12.0112       0
     427      2         6    6                 0       12.0112       0
     428      2         6    6             0.267       12.0112       0
     429      2         6    6                 0       12.0112       0
     430      2         12   12           -0.481       14.0067       0
     431      2         6    6           -0.1268       12.0112       0
     432      2         6    6             0.267       12.0112       0
     433      2         3    3            -0.159       12.0112       0
     434      2         5    5            0.1465       12.0112       0
     435      2         13   13            -0.12       15.9994       0
     436      2         16   16          -0.0265       15.9994       0
     437      2         15   15           -0.053       15.9994       0
     438      2         15   15          -0.1595       15.9994       0
     439      2         2    2             0.027       12.0112       0
     440      2         6    6                 0       12.0112       0
     441      2         6    6            0.0827       12.0112       0
     442      2         6    6            0.0265       12.0112       0
     443      2         6    6                 0       12.0112       0
     444      2         6    6           -0.1268       12.0112       0
     445      2         6    6           -0.1268       12.0112       0
     446      2         11   11          -0.4141       14.0067       0
     447      2         6    6            0.0827       12.0112       0
     448      2         6    6                 0       12.0112       0
     449      2         6    6           -0.1268       12.0112       0
     450      2         6    6            0.0265       12.0112       0
     451      2         6    6                 0       12.0112       0
     452      2         6    6           -0.1268       12.0112       0
     453      2         16   16          -0.0265       15.9994       0
     454      2         3    3            -0.159       12.0112       0
     455      2         16   16          -0.0265       15.9994       0
     456      2         6    6            0.0265       12.0112       0
     457      2         6    6            0.0265       12.0112       0
     458      2         6    6           -0.1268       12.0112       0
     459      2         6    6                 0       12.0112       0
     460      2         6    6           -0.1268       12.0112       0
     461      2         6    6                 0       12.0112       0
     462      2         15   15          -0.1595       15.9994       0
     463      2         2    2             0.027       12.0112       0
     464      2         6    6                 0       12.0112       0
     465      2         6    6                 0       12.0112       0
     466      2         6    6            0.0283       12.0112       0
     467      2         6    6           -0.1268       12.0112       0
     468      2         6    6            0.0265       12.0112       0
     469      2         6    6                 0       12.0112       0
     470      2         17   17          -0.0566       15.9994       0
     471      2         6    6            0.0283       12.0112       0
     472      2         6    6                 0       12.0112       0
     473      2         6    6           -0.1268       12.0112       0
     474      2         6    6            0.0265       12.0112       0
     475      2         6    6           -0.1268       12.0112       0
     476      2         6    6            0.0265       12.0112       0
     477      2         16   16          -0.0265       15.9994       0
     478      2         15   15           -0.053       15.9994       0
     479      2         6    6            0.0265       12.0112       0
     480      2         6    6           -0.1268       12.0112       0
     481      2         6    6           -0.1268       12.0112       0
     482      2         6    6                 0       12.0112       0
     483      2         6    6           -0.1268       12.0112       0
     484      2         6    6           -0.1268       12.0112       0
     485      2         6    6                 0       12.0112       0
     486      2         6    6            0.0265       12.0112       0
     487      2         6    6           -0.1268       12.0112       0
     488      2         6    6           -0.1268       12.0112       0
     489      2         6    6           -0.1268       12.0112       0
     490      2         6    6           -0.1268       12.0112       0
     491      2         16   16          -0.0265       15.9994       0
     492      2         16   16          -0.0265       15.9994       0
     493      2         2    2            -0.106       12.0112       0
     494      2         4    4                 0       12.0112       0
     495      2         2    2            -0.106       12.0112       0
     496      2         4    4           -0.1268       12.0112       0
     497      2         4    4           -0.1268       12.0112       0
     498      2         4    4           -0.1268       12.0112       0
     499      2         2    2            -0.106       12.0112       0
     500      2         1    1            -0.053       12.0112       0
     501      2         1    1            -0.053       12.0112       0
     502      2         2    2            -0.106       12.0112       0
     503      2         1    1            -0.053       12.0112       0
     504      2         1    1            -0.053       12.0112       0
     505      2         2    2            -0.106       12.0112       0
     506      2         2    2            -0.106       12.0112       0
     507      2         2    2            -0.106       12.0112       0
     508      2         2    2            -0.106       12.0112       0
     509      2         2    2            -0.106       12.0112       0
     510      2         6    6                 0       12.0112       0
     511      2         6    6            -0.012       12.0112       0
     512      2         6    6           -0.1268       12.0112       0
     513      2         6    6                 0       12.0112       0
     514      2         6    6           -0.1268       12.0112       0
     515      2         6    6                 0       12.0112       0
     516      2         6    6                 0       12.0112       0
     517      2         6    6           -0.1268       12.0112       0
     518      2         6    6                 0       12.0112       0
     519      2         6    6                 0       12.0112       0
     520      2         6    6                 0       12.0112       0
     521      2         6    6                 0       12.0112       0
     522      2         6    6           -0.1268       12.0112       0
     523      2         6    6           -0.1268       12.0112       0
     524      2         18   18            0.024        32.064       0
     525      2         3    3            -0.159       12.0112       0
     526      2         6    6                 0       12.0112       0
     527      2         6    6                 0       12.0112       0
     528      2         6    6           -0.1268       12.0112       0
     529      2         6    6           -0.1268       12.0112       0
     530      2         6    6           -0.1268       12.0112       0
     531      2         6    6                 0       12.0112       0
     532      2         6    6           -0.1268       12.0112       0
     533      2         6    6           -0.1268       12.0112       0
     534      2         2    2            -0.106       12.0112       0
     535      2         2    2            -0.106       12.0112       0
     536      2         2    2            -0.106       12.0112       0
     537      2         6    6                 0       12.0112       0
     538      2         6    6                 0       12.0112       0
     539      2         6    6                 0       12.0112       0
     540      2         6    6                 0       12.0112       0
     541      2         6    6                 0       12.0112       0
     542      2         6    6                 0       12.0112       0
     543      2         6    6           -0.1268       12.0112       0
     544      2         6    6           -0.1268       12.0112       0
     545      2         6    6                 0       12.0112       0
     546      2         6    6                 0       12.0112       0
     547      2         3    3            -0.159       12.0112       0
     548      2         3    3            -0.159       12.0112       0
     549      2         6    6                 0       12.0112       0
     550      2         6    6            0.0265       12.0112       0
     551      2         6    6           -0.1268       12.0112       0
     552      2         6    6                 0       12.0112       0
     553      2         6    6                 0       12.0112       0
     554      2         6    6           -0.1268       12.0112       0
     555      2         6    6           -0.1268       12.0112       0
     556      2         6    6                 0       12.0112       0
     557      2         6    6           -0.1268       12.0112       0
     558      2         6    6                 0       12.0112       0
     559      2         1    1            -0.053       12.0112       0
     560      2         1    1            -0.053       12.0112       0
     561      2         2    2            -0.106       12.0112       0
     562      2         2    2            -0.106       12.0112       0
     563      2         2    2            -0.106       12.0112       0
     564      2         1    1              0.08       12.0112       0
     565      2         2    2            -0.106       12.0112       0
     566      2         2    2            -0.106       12.0112       0
     567      2         16   16           -0.133       15.9994       0
     568      2         16   16          -0.0265       15.9994       0
     569      2         6    6            -0.012       12.0112       0
     570      2         6    6                 0       12.0112       0
     571      2         6    6                 0       12.0112       0
     572      2         6    6           -0.1268       12.0112       0
     573      2         6    6           -0.1268       12.0112       0
     574      2         6    6           -0.1268       12.0112       0
     575      2         4    4           -0.1268       12.0112       0
     576      2         2    2            -0.106       12.0112       0
     577      2         4    4           -0.1268       12.0112       0
     578      2         7    7            0.1268       1.00797       0
     579      2         7    7            0.1268       1.00797       0
     580      2         7    7            0.1268       1.00797       0
     581      2         7    7            0.1268       1.00797       0
     582      2         7    7            0.1268       1.00797       0
     583      2         10   10           0.1392       1.00797       0
     584      2         9    9                 0         1.008       0
     585      2         7    7             0.053       1.00797       0
     586      2         7    7             0.053       1.00797       0
     587      2         7    7            0.1268       1.00797       0
     588      2         7    7            0.1268       1.00797       0
     589      2         7    7             0.053       1.00797       0
     590      2         7    7             0.053       1.00797       0
     591      2         7    7             0.053       1.00797       0
     592      2         7    7             0.053       1.00797       0
     593      2         7    7             0.053       1.00797       0
     594      2         8    8            0.2487       1.00797       0
     595      2         8    8            0.2487       1.00797       0
     596      2         9    9                 0         1.008       0
     597      2         9    9                 0         1.008       0
     598      2         7    7             0.053       1.00797       0
     599      2         7    7             0.053       1.00797       0
     600      2         7    7             0.053       1.00797       0
     601      2         7    7            0.1268       1.00797       0
     602      2         9    9                 0         1.008       0
     603      2         7    7            0.1268       1.00797       0
     604      2         7    7            0.1268       1.00797       0
     605      2         7    7            0.1268       1.00797       0
     606      2         7    7             0.053       1.00797       0
     607      2         7    7             0.053       1.00797       0
     608      2         7    7            0.1268       1.00797       0
     609      2         7    7             0.053       1.00797       0
     610      2         7    7             0.053       1.00797       0
     611      2         7    7             0.053       1.00797       0
     612      2         7    7             0.053       1.00797       0
     613      2         7    7             0.053       1.00797       0
     614      2         7    7             0.053       1.00797       0
     615      2         7    7             0.053       1.00797       0
     616      2         7    7            0.1268       1.00797       0
     617      2         7    7             0.053       1.00797       0
     618      2         7    7             0.053       1.00797       0
     619      2         7    7             0.053       1.00797       0
     620      2         9    9                 0         1.008       0
     621      2         7    7             0.053       1.00797       0
     622      2         7    7             0.053       1.00797       0
     623      2         7    7            0.1268       1.00797       0
     624      2         7    7            0.1268       1.00797       0
     625      2         8    8            0.2487       1.00797       0
     626      2         7    7            0.1268       1.00797       0
     627      2         7    7            0.1268       1.00797       0
     628      2         9    9                 0         1.008       0
     629      2         7    7             0.053       1.00797       0
     630      2         7    7             0.053       1.00797       0
     631      2         7    7             0.053       1.00797       0
     632      2         9    9                 0         1.008       0
     633      2         7    7            0.1268       1.00797       0
     634      2         7    7            0.1268       1.00797       0
     635      2         7    7             0.053       1.00797       0
     636      2         7    7             0.053       1.00797       0
     637      2         7    7            0.1268       1.00797       0
     638      2         7    7            0.1268       1.00797       0
     639      2         7    7            0.1268       1.00797       0
     640      2         9    9                 0         1.008       0
     641      2         7    7            0.1268       1.00797       0
     642      2         7    7            0.1268       1.00797       0
     643      2         7    7            0.1268       1.00797       0
     644      2         7    7            0.1268       1.00797       0
     645      2         7    7            0.1268       1.00797       0
     646      2         7    7            0.1268       1.00797       0
     647      2         7    7            0.1268       1.00797       0
     648      2         7    7            0.1268       1.00797       0
     649      2         9    9                 0         1.008       0
     650      2         9    9                 0         1.008       0
     651      2         7    7             0.053       1.00797       0
     652      2         7    7             0.053       1.00797       0
     653      2         7    7             0.053       1.00797       0
     654      2         7    7             0.053       1.00797       0
     655      2         7    7            0.1268       1.00797       0
     656      2         7    7            0.1268       1.00797       0
     657      2         7    7            0.1268       1.00797       0
     658      2         7    7             0.053       1.00797       0
     659      2         7    7             0.053       1.00797       0
     660      2         7    7             0.053       1.00797       0
     661      2         7    7             0.053       1.00797       0
     662      2         7    7             0.053       1.00797       0
     663      2         7    7             0.053       1.00797       0
     664      2         7    7             0.053       1.00797       0
     665      2         7    7             0.053       1.00797       0
     666      2         7    7             0.053       1.00797       0
     667      2         7    7             0.053       1.00797       0
     668      2         7    7             0.053       1.00797       0
     669      2         7    7             0.053       1.00797       0
     670      2         7    7             0.053       1.00797       0
     671      2         7    7             0.053       1.00797       0
     672      2         7    7             0.053       1.00797       0
     673      2         7    7             0.053       1.00797       0
     674      2         7    7             0.053       1.00797       0
     675      2         7    7             0.053       1.00797       0
     676      2         7    7            0.1268       1.00797       0
     677      2         7    7            0.1268       1.00797       0
     678      2         7    7            0.1268       1.00797       0
     679      2         7    7            0.1268       1.00797       0
     680      2         7    7            0.1268       1.00797       0
     681      2         7    7             0.053       1.00797       0
     682      2         7    7             0.053       1.00797       0
     683      2         7    7             0.053       1.00797       0
     684      2         7    7            0.1268       1.00797       0
     685      2         7    7            0.1268       1.00797       0
     686      2         7    7            0.1268       1.00797       0
     687      2         7    7            0.1268       1.00797       0
     688      2         7    7            0.1268       1.00797       0
     689      2         7    7             0.053       1.00797       0
     690      2         7    7             0.053       1.00797       0
     691      2         7    7             0.053       1.00797       0
     692      2         7    7             0.053       1.00797       0
     693      2         7    7             0.053       1.00797       0
     694      2         7    7             0.053       1.00797       0
     695      2         7    7            0.1268       1.00797       0
     696      2         7    7            0.1268       1.00797       0
     697      2         7    7             0.053       1.00797       0
     698      2         7    7             0.053       1.00797       0
     699      2         7    7             0.053       1.00797       0
     700      2         7    7             0.053       1.00797       0
     701      2         7    7             0.053       1.00797       0
     702      2         7    7             0.053       1.00797       0
     703      2         7    7            0.1268       1.00797       0
     704      2         7    7            0.1268       1.00797       0
     705      2         7    7            0.1268       1.00797       0
     706      2         7    7            0.1268       1.00797       0
     707      2         7    7             0.053       1.00797       0
     708      2         7    7             0.053       1.00797       0
     709      2         7    7             0.053       1.00797       0
     710      2         7    7             0.053       1.00797       0
     711      2         7    7             0.053       1.00797       0
     712      2         7    7             0.053       1.00797       0
     713      2         7    7             0.053       1.00797       0
     714      2         7    7             0.053       1.00797       0
     715      2         7    7             0.053       1.00797       0
     716      2         7    7             0.053       1.00797       0
     717      2         7    7             0.053       1.00797       0
     718      2         7    7             0.053       1.00797       0
     719      2         7    7             0.053       1.00797       0
     720      2         9    9                 0         1.008       0
     721      2         9    9                 0         1.008       0
     722      2         7    7            0.1268       1.00797       0
     723      2         7    7            0.1268       1.00797       0
     724      2         7    7            0.1268       1.00797       0
     725      2         7    7            0.1268       1.00797       0
     726      2         7    7             0.053       1.00797       0
     727      2         7    7             0.053       1.00797       0
     728      2         7    7            0.1268       1.00797       0
     729      3         6    6           -0.1268       12.0112       0
     730      3         6    6                 0       12.0112       0
     731      3         6    6            0.0265       12.0112       0
     732      3         6    6                 0       12.0112       0
     733      3         6    6           -0.1268       12.0112       0
     734      3         6    6                 0       12.0112       0
     735      3         6    6            -0.012       12.0112       0
     736      3         6    6           -0.1268       12.0112       0
     737      3         6    6                 0       12.0112       0
     738      3         6    6                 0       12.0112       0
     739      3         6    6                 0       12.0112       0
     740      3         6    6           -0.1268       12.0112       0
     741      3         6    6                 0       12.0112       0
     742      3         6    6            0.0827       12.0112       0
     743      3         6    6            0.0265       12.0112       0
     744      3         6    6           -0.1268       12.0112       0
     745      3         19   19          -0.1272        32.064       0
     746      3         16   16          -0.0265       15.9994       0
     747      3         2    2            -0.106       12.0112       0
     748      3         6    6                 0       12.0112       0
     749      3         6    6                 0       12.0112       0
     750      3         6    6            0.0265       12.0112       0
     751      3         6    6                 0       12.0112       0
     752      3         6    6           -0.1268       12.0112       0
     753      3         6    6           -0.1268       12.0112       0
     754      3         6    6                 0       12.0112       0
     755      3         6    6            0.0265       12.0112       0
     756      3         6    6                 0       12.0112       0
     757      3         6    6                 0       12.0112       0
     758      3         2    2            -0.106       12.0112       0
     759      3         1    1            -0.053       12.0112       0
     760      3         6    6            0.3964       12.0112       0
     761      3         2    2            -0.106       12.0112       0
     762      3         14   14          -0.3964       15.9994       0
     763      3         15   15           -0.053       15.9994       0
     764      3         11   11          -0.5801       14.0067       0
     765      3         16   16          -0.0265       15.9994       0
     766      3         16   16          -0.0265       15.9994       0
     767      3         3    3            -0.159       12.0112       0
     768      3         6    6            0.0265       12.0112       0
     769      3         6    6            0.0265       12.0112       0
     770      3         6    6           -0.1268       12.0112       0
     771      3         6    6                 0       12.0112       0
     772      3         6    6                 0       12.0112       0
     773      3         6    6            -0.013       12.0112       0
     774      3         16   16          -0.0265       15.9994       0
     775      3         6    6                 0       12.0112       0
     776      3         20   20            0.026        32.064       0
     777      3         6    6           -0.1268       12.0112       0
     778      3         6    6           -0.1268       12.0112       0
     779      3         6    6            0.0265       12.0112       0
     780      3         6    6            -0.013       12.0112       0
     781      3         6    6                 0       12.0112       0
     782      3         15   15           -0.053       15.9994       0
     783      3         4    4            0.0265       12.0112       0
     784      3         4    4           -0.1268       12.0112       0
     785      3         4    4                 0       12.0112       0
     786      3         2    2            -0.106       12.0112       0
     787      3         4    4           -0.1268       12.0112       0
     788      3         3    3            -0.159       12.0112       0
     789      3         2    2            -0.106       12.0112       0
     790      3         2    2            -0.106       12.0112       0
     791      3         6    6                 0       12.0112       0
     792      3         6    6             0.267       12.0112       0
     793      3         6    6                 0       12.0112       0
     794      3         12   12           -0.481       14.0067       0
     795      3         6    6           -0.1268       12.0112       0
     796      3         6    6             0.267       12.0112       0
     797      3         3    3            -0.159       12.0112       0
     798      3         5    5            0.1465       12.0112       0
     799      3         13   13            -0.12       15.9994       0
     800      3         16   16          -0.0265       15.9994       0
     801      3         15   15           -0.053       15.9994       0
     802      3         15   15          -0.1595       15.9994       0
     803      3         2    2             0.027       12.0112       0
     804      3         6    6                 0       12.0112       0
     805      3         6    6            0.0827       12.0112       0
     806      3         6    6            0.0265       12.0112       0
     807      3         6    6                 0       12.0112       0
     808      3         6    6           -0.1268       12.0112       0
     809      3         6    6           -0.1268       12.0112       0
     810      3         11   11          -0.4141       14.0067       0
     811      3         6    6            0.0827       12.0112       0
     812      3         6    6                 0       12.0112       0
     813      3         6    6           -0.1268       12.0112       0
     814      3         6    6            0.0265       12.0112       0
     815      3         6    6                 0       12.0112       0
     816      3         6    6           -0.1268       12.0112       0
     817      3         16   16          -0.0265       15.9994       0
     818      3         3    3            -0.159       12.0112       0
     819      3         16   16          -0.0265       15.9994       0
     820      3         6    6            0.0265       12.0112       0
     821      3         6    6            0.0265       12.0112       0
     822      3         6    6           -0.1268       12.0112       0
     823      3         6    6                 0       12.0112       0
     824      3         6    6           -0.1268       12.0112       0
     825      3         6    6                 0       12.0112       0
     826      3         15   15          -0.1595       15.9994       0
     827      3         2    2             0.027       12.0112       0
     828      3         6    6                 0       12.0112       0
     829      3         6    6                 0       12.0112       0
     830      3         6    6            0.0283       12.0112       0
     831      3         6    6           -0.1268       12.0112       0
     832      3         6    6            0.0265       12.0112       0
     833      3         6    6                 0       12.0112       0
     834      3         17   17          -0.0566       15.9994       0
     835      3         6    6            0.0283       12.0112       0
     836      3         6    6                 0       12.0112       0
     837      3         6    6           -0.1268       12.0112       0
     838      3         6    6            0.0265       12.0112       0
     839      3         6    6           -0.1268       12.0112       0
     840      3         6    6            0.0265       12.0112       0
     841      3         16   16          -0.0265       15.9994       0
     842      3         15   15           -0.053       15.9994       0
     843      3         6    6            0.0265       12.0112       0
     844      3         6    6           -0.1268       12.0112       0
     845      3         6    6           -0.1268       12.0112       0
     846      3         6    6                 0       12.0112       0
     847      3         6    6           -0.1268       12.0112       0
     848      3         6    6           -0.1268       12.0112       0
     849      3         6    6                 0       12.0112       0
     850      3         6    6            0.0265       12.0112       0
     851      3         6    6           -0.1268       12.0112       0
     852      3         6    6           -0.1268       12.0112       0
     853      3         6    6           -0.1268       12.0112       0
     854      3         6    6           -0.1268       12.0112       0
     855      3         16   16          -0.0265       15.9994       0
     856      3         16   16          -0.0265       15.9994       0
     857      3         2    2            -0.106       12.0112       0
     858      3         4    4                 0       12.0112       0
     859      3         2    2            -0.106       12.0112       0
     860      3         4    4           -0.1268       12.0112       0
     861      3         4    4           -0.1268       12.0112       0
     862      3         4    4           -0.1268       12.0112       0
     863      3         2    2            -0.106       12.0112       0
     864      3         1    1            -0.053       12.0112       0
     865      3         1    1            -0.053       12.0112       0
     866      3         2    2            -0.106       12.0112       0
     867      3         1    1            -0.053       12.0112       0
     868      3         1    1            -0.053       12.0112       0
     869      3         2    2            -0.106       12.0112       0
     870      3         2    2            -0.106       12.0112       0
     871      3         2    2            -0.106       12.0112       0
     872      3         2    2            -0.106       12.0112       0
     873      3         2    2            -0.106       12.0112       0
     874      3         6    6                 0       12.0112       0
     875      3         6    6            -0.012       12.0112       0
     876      3         6    6           -0.1268       12.0112       0
     877      3         6    6                 0       12.0112       0
     878      3         6    6           -0.1268       12.0112       0
     879      3         6    6                 0       12.0112       0
     880      3         6    6                 0       12.0112       0
     881      3         6    6           -0.1268       12.0112       0
     882      3         6    6                 0       12.0112       0
     883      3         6    6                 0       12.0112       0
     884      3         6    6                 0       12.0112       0
     885      3         6    6                 0       12.0112       0
     886      3         6    6           -0.1268       12.0112       0
     887      3         6    6           -0.1268       12.0112       0
     888      3         18   18            0.024        32.064       0
     889      3         3    3            -0.159       12.0112       0
     890      3         6    6                 0       12.0112       0
     891      3         6    6                 0       12.0112       0
     892      3         6    6           -0.1268       12.0112       0
     893      3         6    6           -0.1268       12.0112       0
     894      3         6    6           -0.1268       12.0112       0
     895      3         6    6                 0       12.0112       0
     896      3         6    6           -0.1268       12.0112       0
     897      3         6    6           -0.1268       12.0112       0
     898      3         2    2            -0.106       12.0112       0
     899      3         2    2            -0.106       12.0112       0
     900      3         2    2            -0.106       12.0112       0
     901      3         6    6                 0       12.0112       0
     902      3         6    6                 0       12.0112       0
     903      3         6    6                 0       12.0112       0
     904      3         6    6                 0       12.0112       0
     905      3         6    6                 0       12.0112       0
     906      3         6    6                 0       12.0112       0
     907      3         6    6           -0.1268       12.0112       0
     908      3         6    6           -0.1268       12.0112       0
     909      3         6    6                 0       12.0112       0
     910      3         6    6                 0       12.0112       0
     911      3         3    3            -0.159       12.0112       0
     912      3         3    3            -0.159       12.0112       0
     913      3         6    6                 0       12.0112       0
     914      3         6    6            0.0265       12.0112       0
     915      3         6    6           -0.1268       12.0112       0
     916      3         6    6                 0       12.0112       0
     917      3         6    6                 0       12.0112       0
     918      3         6    6           -0.1268       12.0112       0
     919      3         6    6           -0.1268       12.0112       0
     920      3         6    6                 0       12.0112       0
     921      3         6    6           -0.1268       12.0112       0
     922      3         6    6                 0       12.0112       0
     923      3         1    1            -0.053       12.0112       0
     924      3         1    1            -0.053       12.0112       0
     925      3         2    2            -0.106       12.0112       0
     926      3         2    2            -0.106       12.0112       0
     927      3         2    2            -0.106       12.0112       0
     928      3         1    1              0.08       12.0112       0
     929      3         2    2            -0.106       12.0112       0
     930      3         2    2            -0.106       12.0112       0
     931      3         16   16           -0.133       15.9994       0
     932      3         16   16          -0.0265       15.9994       0
     933      3         6    6            -0.012       12.0112       0
     934      3         6    6                 0       12.0112       0
     935      3         6    6                 0       12.0112       0
     936      3         6    6           -0.1268       12.0112       0
     937      3         6    6           -0.1268       12.0112       0
     938      3         6    6           -0.1268       12.0112       0
     939      3         4    4           -0.1268       12.0112       0
     940      3         2    2            -0.106       12.0112       0
     941      3         4    4           -0.1268       12.0112       0
     942      3         7    7            0.1268       1.00797       0
     943      3         7    7            0.1268       1.00797       0
     944      3         7    7            0.1268       1.00797       0
     945      3         7    7            0.1268       1.00797       0
     946      3         7    7            0.1268       1.00797       0
     947      3         10   10           0.1392       1.00797       0
     948      3         9    9                 0         1.008       0
     949      3         7    7             0.053       1.00797       0
     950      3         7    7             0.053       1.00797       0
     951      3         7    7            0.1268       1.00797       0
     952      3         7    7            0.1268       1.00797       0
     953      3         7    7             0.053       1.00797       0
     954      3         7    7             0.053       1.00797       0
     955      3         7    7             0.053       1.00797       0
     956      3         7    7             0.053       1.00797       0
     957      3         7    7             0.053       1.00797       0
     958      3         8    8            0.2487       1.00797       0
     959      3         8    8            0.2487       1.00797       0
     960      3         9    9                 0         1.008       0
     961      3         9    9                 0         1.008       0
     962      3         7    7             0.053       1.00797       0
     963      3         7    7             0.053       1.00797       0
     964      3         7    7             0.053       1.00797       0
     965      3         7    7            0.1268       1.00797       0
     966      3         9    9                 0         1.008       0
     967      3         7    7            0.1268       1.00797       0
     968      3         7    7            0.1268       1.00797       0
     969      3         7    7            0.1268       1.00797       0
     970      3         7    7             0.053       1.00797       0
     971      3         7    7             0.053       1.00797       0
     972      3         7    7            0.1268       1.00797       0
     973      3         7    7             0.053       1.00797       0
     974      3         7    7             0.053       1.00797       0
     975      3         7    7             0.053       1.00797       0
     976      3         7    7             0.053       1.00797       0
     977      3         7    7             0.053       1.00797       0
     978      3         7    7             0.053       1.00797       0
     979      3         7    7             0.053       1.00797       0
     980      3         7    7            0.1268       1.00797       0
     981      3         7    7             0.053       1.00797       0
     982      3         7    7             0.053       1.00797       0
     983      3         7    7             0.053       1.00797       0
     984      3         9    9                 0         1.008       0
     985      3         7    7             0.053       1.00797       0
     986      3         7    7             0.053       1.00797       0
     987      3         7    7            0.1268       1.00797       0
     988      3         7    7            0.1268       1.00797       0
     989      3         8    8            0.2487       1.00797       0
     990      3         7    7            0.1268       1.00797       0
     991      3         7    7            0.1268       1.00797       0
     992      3         9    9                 0         1.008       0
     993      3         7    7             0.053       1.00797       0
     994      3         7    7             0.053       1.00797       0
     995      3         7    7             0.053       1.00797       0
     996      3         9    9                 0         1.008       0
     997      3         7    7            0.1268       1.00797       0
     998      3         7    7            0.1268       1.00797       0
     999      3         7    7             0.053       1.00797       0
    1000      3         7    7             0.053       1.00797       0
    1001      3         7    7            0.1268       1.00797       0
    1002      3         7    7            0.1268       1.00797       0
    1003      3         7    7            0.1268       1.00797       0
    1004      3         9    9                 0         1.008       0
    1005      3         7    7            0.1268       1.00797       0
    1006      3         7    7            0.1268       1.00797       0
    1007      3         7    7            0.1268       1.00797       0
    1008      3         7    7            0.1268       1.00797       0
    1009      3         7    7            0.1268       1.00797       0
    1010      3         7    7            0.1268       1.00797       0
    1011      3         7    7            0.1268       1.00797       0
    1012      3         7    7            0.1268       1.00797       0
    1013      3         9    9                 0         1.008       0
    1014      3         9    9                 0         1.008       0
    1015      3         7    7             0.053       1.00797       0
    1016      3         7    7             0.053       1.00797       0
    1017      3         7    7             0.053       1.00797       0
    1018      3         7    7             0.053       1.00797       0
    1019      3         7    7            0.1268       1.00797       0
    1020      3         7    7            0.1268       1.00797       0
    1021      3         7    7            0.1268       1.00797       0
    1022      3         7    7             0.053       1.00797       0
    1023      3         7    7             0.053       1.00797       0
    1024      3         7    7             0.053       1.00797       0
    1025      3         7    7             0.053       1.00797       0
    1026      3         7    7             0.053       1.00797       0
    1027      3         7    7             0.053       1.00797       0
    1028      3         7    7             0.053       1.00797       0
    1029      3         7    7             0.053       1.00797       0
    1030      3         7    7             0.053       1.00797       0
    1031      3         7    7             0.053       1.00797       0
    1032      3         7    7             0.053       1.00797       0
    1033      3         7    7             0.053       1.00797       0
    1034      3         7    7             0.053       1.00797       0
    1035      3         7    7             0.053       1.00797       0
    1036      3         7    7             0.053       1.00797       0
    1037      3         7    7             0.053       1.00797       0
    1038      3         7    7             0.053       1.00797       0
    1039      3         7    7             0.053       1.00797       0
    1040      3         7    7            0.1268       1.00797       0
    1041      3         7    7            0.1268       1.00797       0
    1042      3         7    7            0.1268       1.00797       0
    1043      3         7    7            0.1268       1.00797       0
    1044      3         7    7            0.1268       1.00797       0
    1045      3         7    7             0.053       1.00797       0
    1046      3         7    7             0.053       1.00797       0
    1047      3         7    7             0.053       1.00797       0
    1048      3         7    7            0.1268       1.00797       0
    1049      3         7    7            0.1268       1.00797       0
    1050      3         7    7            0.1268       1.00797       0
    1051      3         7    7            0.1268       1.00797       0
    1052      3         7    7            0.1268       1.00797       0
    1053      3         7    7             0.053       1.00797       0
    1054      3         7    7             0.053       1.00797       0
    1055      3         7    7             0.053       1.00797       0
    1056      3         7    7             0.053       1.00797       0
    1057      3         7    7             0.053       1.00797       0
    1058      3         7    7             0.053       1.00797       0
    1059      3         7    7            0.1268       1.00797       0
    1060      3         7    7            0.1268       1.00797       0
    1061      3         7    7             0.053       1.00797       0
    1062      3         7    7             0.053       1.00797       0
    1063      3         7    7             0.053       1.00797       0
    1064      3         7    7             0.053       1.00797       0
    1065      3         7    7             0.053       1.00797       0
    1066      3         7    7             0.053       1.00797       0
    1067      3         7    7            0.1268       1.00797       0
    1068      3         7    7            0.1268       1.00797       0
    1069      3         7    7            0.1268       1.00797       0
    1070      3         7    7            0.1268       1.00797       0
    1071      3         7    7             0.053       1.00797       0
    1072      3         7    7             0.053       1.00797       0
    1073      3         7    7             0.053       1.00797       0
    1074      3         7    7             0.053       1.00797       0
    1075      3         7    7             0.053       1.00797       0
    1076      3         7    7             0.053       1.00797       0
    1077      3         7    7             0.053       1.00797       0
    1078      3         7    7             0.053       1.00797       0
    1079      3         7    7             0.053       1.00797       0
    1080      3         7    7             0.053       1.00797       0
    1081      3         7    7             0.053       1.00797       0
    1082      3         7    7             0.053       1.00797       0
    1083      3         7    7             0.053       1.00797       0
    1084      3         9    9                 0         1.008       0
    1085      3         9    9                 0         1.008       0
    1086      3         7    7            0.1268       1.00797       0
    1087      3         7    7            0.1268       1.00797       0
    1088      3         7    7            0.1268       1.00797       0
    1089      3         7    7            0.1268       1.00797       0
    1090      3         7    7             0.053       1.00797       0
    1091      3         7    7             0.053       1.00797       0
    1092      3         7    7            0.1268       1.00797       0
    1093      4         6    6           -0.1268       12.0112       0
    1094      4         6    6                 0       12.0112       0
    1095      4         6    6            0.0265       12.0112       0
    1096      4         6    6                 0       12.0112       0
    1097      4         6    6           -0.1268       12.0112       0
    1098      4         6    6                 0       12.0112       0
    1099      4         6    6            -0.012       12.0112       0
    1100      4         6    6           -0.1268       12.0112       0
    1101      4         6    6                 0       12.0112       0
    1102      4         6    6                 0       12.0112       0
    1103      4         6    6                 0       12.0112       0
    1104      4         6    6           -0.1268       12.0112       0
    1105      4         6    6                 0       12.0112       0
    1106      4         6    6            0.0827       12.0112       0
    1107      4         6    6            0.0265       12.0112       0
    1108      4         6    6           -0.1268       12.0112       0
    1109      4         19   19          -0.1272        32.064       0
    1110      4         16   16          -0.0265       15.9994       0
    1111      4         2    2            -0.106       12.0112       0
    1112      4         6    6                 0       12.0112       0
    1113      4         6    6                 0       12.0112       0
    1114      4         6    6            0.0265       12.0112       0
    1115      4         6    6                 0       12.0112       0
    1116      4         6    6           -0.1268       12.0112       0
    1117      4         6    6           -0.1268       12.0112       0
    1118      4         6    6                 0       12.0112       0
    1119      4         6    6            0.0265       12.0112       0
    1120      4         6    6                 0       12.0112       0
    1121      4         6    6                 0       12.0112       0
    1122      4         2    2            -0.106       12.0112       0
    1123      4         1    1            -0.053       12.0112       0
    1124      4         6    6            0.3964       12.0112       0
    1125      4         2    2            -0.106       12.0112       0
    1126      4         14   14          -0.3964       15.9994       0
    1127      4         15   15           -0.053       15.9994       0
    1128      4         11   11          -0.5801       14.0067       0
    1129      4         16   16          -0.0265       15.9994       0
    1130      4         16   16          -0.0265       15.9994       0
    1131      4         3    3            -0.159       12.0112       0
    1132      4         6    6            0.0265       12.0112       0
    1133      4         6    6            0.0265       12.0112       0
    1134      4         6    6           -0.1268       12.0112       0
    1135      4         6    6                 0       12.0112       0
    1136      4         6    6                 0       12.0112       0
    1137      4         6    6            -0.013       12.0112       0
    1138      4         16   16          -0.0265       15.9994       0
    1139      4         6    6                 0       12.0112       0
    1140      4         20   20            0.026        32.064       0
    1141      4         6    6           -0.1268       12.0112       0
    1142      4         6    6           -0.1268       12.0112       0
    1143      4         6    6            0.0265       12.0112       0
    1144      4         6    6            -0.013       12.0112       0
    1145      4         6    6                 0       12.0112       0
    1146      4         15   15           -0.053       15.9994       0
    1147      4         4    4            0.0265       12.0112       0
    1148      4         4    4           -0.1268       12.0112       0
    1149      4         4    4                 0       12.0112       0
    1150      4         2    2            -0.106       12.0112       0
    1151      4         4    4           -0.1268       12.0112       0
    1152      4         3    3            -0.159       12.0112       0
    1153      4         2    2            -0.106       12.0112       0
    1154      4         2    2            -0.106       12.0112       0
    1155      4         6    6                 0       12.0112       0
    1156      4         6    6             0.267       12.0112       0
    1157      4         6    6                 0       12.0112       0
    1158      4         12   12           -0.481       14.0067       0
    1159      4         6    6           -0.1268       12.0112       0
    1160      4         6    6             0.267       12.0112       0
    1161      4         3    3            -0.159       12.0112       0
    1162      4         5    5            0.1465       12.0112       0
    1163      4         13   13            -0.12       15.9994       0
    1164      4         16   16          -0.0265       15.9994       0
    1165      4         15   15           -0.053       15.9994       0
    1166      4         15   15          -0.1595       15.9994       0
    1167      4         2    2             0.027       12.0112       0
    1168      4         6    6                 0       12.0112       0
    1169      4         6    6            0.0827       12.0112       0
    1170      4         6    6            0.0265       12.0112       0
    1171      4         6    6                 0       12.0112       0
    1172      4         6    6           -0.1268       12.0112       0
    1173      4         6    6           -0.1268       12.0112       0
    1174      4         11   11          -0.4141       14.0067       0
    1175      4         6    6            0.0827       12.0112       0
    1176      4         6    6                 0       12.0112       0
    1177      4         6    6           -0.1268       12.0112       0
    1178      4         6    6            0.0265       12.0112       0
    1179      4         6    6                 0       12.0112       0
    1180      4         6    6           -0.1268       12.0112       0
    1181      4         16   16          -0.0265       15.9994       0
    1182      4         3    3            -0.159       12.0112       0
    1183      4         16   16          -0.0265       15.9994       0
    1184      4         6    6            0.0265       12.0112       0
    1185      4         6    6            0.0265       12.0112       0
    1186      4         6    6           -0.1268       12.0112       0
    1187      4         6    6                 0       12.0112       0
    1188      4         6    6           -0.1268       12.0112       0
    1189      4         6    6                 0       12.0112       0
    1190      4         15   15          -0.1595       15.9994       0
    1191      4         2    2             0.027       12.0112       0
    1192      4         6    6                 0       12.0112       0
    1193      4         6    6                 0       12.0112       0
    1194      4         6    6            0.0283       12.0112       0
    1195      4         6    6           -0.1268       12.0112       0
    1196      4         6    6            0.0265       12.0112       0
    1197      4         6    6                 0       12.0112       0
    1198      4         17   17          -0.0566       15.9994       0
    1199      4         6    6            0.0283       12.0112       0
    1200      4         6    6                 0       12.0112       0
    1201      4         6    6           -0.1268       12.0112       0
    1202      4         6    6            0.0265       12.0112       0
    1203      4         6    6           -0.1268       12.0112       0
    1204      4         6    6            0.0265       12.0112       0
    1205      4         16   16          -0.0265       15.9994       0
    1206      4         15   15           -0.053       15.9994       0
    1207      4         6    6            0.0265       12.0112       0
    1208      4         6    6           -0.1268       12.0112       0
    1209      4         6    6           -0.1268       12.0112       0
    1210      4         6    6                 0       12.0112       0
    1211      4         6    6           -0.1268       12.0112       0
    1212      4         6    6           -0.1268       12.0112       0
    1213      4         6    6                 0       12.0112       0
    1214      4         6    6            0.0265       12.0112       0
    1215      4         6    6           -0.1268       12.0112       0
    1216      4         6    6           -0.1268       12.0112       0
    1217      4         6    6           -0.1268       12.0112       0
    1218      4         6    6           -0.1268       12.0112       0
    1219      4         16   16          -0.0265       15.9994       0
    1220      4         16   16          -0.0265       15.9994       0
    1221      4         2    2            -0.106       12.0112       0
    1222      4         4    4                 0       12.0112       0
    1223      4         2    2            -0.106       12.0112       0
    1224      4         4    4           -0.1268       12.0112       0
    1225      4         4    4           -0.1268       12.0112       0
    1226      4         4    4           -0.1268       12.0112       0
    1227      4         2    2            -0.106       12.0112       0
    1228      4         1    1            -0.053       12.0112       0
    1229      4         1    1            -0.053       12.0112       0
    1230      4         2    2            -0.106       12.0112       0
    1231      4         1    1            -0.053       12.0112       0
    1232      4         1    1            -0.053       12.0112       0
    1233      4         2    2            -0.106       12.0112       0
    1234      4         2    2            -0.106       12.0112       0
    1235      4         2    2            -0.106       12.0112       0
    1236      4         2    2            -0.106       12.0112       0
    1237      4         2    2            -0.106       12.0112       0
    1238      4         6    6                 0       12.0112       0
    1239      4         6    6            -0.012       12.0112       0
    1240      4         6    6           -0.1268       12.0112       0
    1241      4         6    6                 0       12.0112       0
    1242      4         6    6           -0.1268       12.0112       0
    1243      4         6    6                 0       12.0112       0
    1244      4         6    6                 0       12.0112       0
    1245      4         6    6           -0.1268       12.0112       0
    1246      4         6    6                 0       12.0112       0
    1247      4         6    6                 0       12.0112       0
    1248      4         6    6                 0       12.0112       0
    1249      4         6    6                 0       12.0112       0
    1250      4         6    6           -0.1268       12.0112       0
    1251      4         6    6           -0.1268       12.0112       0
    1252      4         18   18            0.024        32.064       0
    1253      4         3    3            -0.159       12.0112       0
    1254      4         6    6                 0       12.0112       0
    1255      4         6    6                 0       12.0112       0
    1256      4         6    6           -0.1268       12.0112       0
    1257      4         6    6           -0.1268       12.0112       0
    1258      4         6    6           -0.1268       12.0112       0
    1259      4         6    6                 0       12.0112       0
    1260      4         6    6           -0.1268       12.0112       0
    1261      4         6    6           -0.1268       12.0112       0
    1262      4         2    2            -0.106       12.0112       0
    1263      4         2    2            -0.106       12.0112       0
    1264      4         2    2            -0.106       12.0112       0
    1265      4         6    6                 0       12.0112       0
    1266      4         6    6                 0       12.0112       0
    1267      4         6    6                 0       12.0112       0
    1268      4         6    6                 0       12.0112       0
    1269      4         6    6                 0       12.0112       0
    1270      4         6    6                 0       12.0112       0
    1271      4         6    6           -0.1268       12.0112       0
    1272      4         6    6           -0.1268       12.0112       0
    1273      4         6    6                 0       12.0112       0
    1274      4         6    6                 0       12.0112       0
    1275      4         3    3            -0.159       12.0112       0
    1276      4         3    3            -0.159       12.0112       0
    1277      4         6    6                 0       12.0112       0
    1278      4         6    6            0.0265       12.0112       0
    1279      4         6    6           -0.1268       12.0112       0
    1280      4         6    6                 0       12.0112       0
    1281      4         6    6                 0       12.0112       0
    1282      4         6    6           -0.1268       12.0112       0
    1283      4         6    6           -0.1268       12.0112       0
    1284      4         6    6                 0       12.0112       0
    1285      4         6    6           -0.1268       12.0112       0
    1286      4         6    6                 0       12.0112       0
    1287      4         1    1            -0.053       12.0112       0
    1288      4         1    1            -0.053       12.0112       0
    1289      4         2    2            -0.106       12.0112       0
    1290      4         2    2            -0.106       12.0112       0
    1291      4         2    2            -0.106       12.0112       0
    1292      4         1    1              0.08       12.0112       0
    1293      4         2    2            -0.106       12.0112       0
    1294      4         2    2            -0.106       12.0112       0
    1295      4         16   16           -0.133       15.9994       0
    1296      4         16   16          -0.0265       15.9994       0
    1297      4         6    6            -0.012       12.0112       0
    1298      4         6    6                 0       12.0112       0
    1299      4         6    6                 0       12.0112       0
    1300      4         6    6           -0.1268       12.0112       0
    1301      4         6    6           -0.1268       12.0112       0
    1302      4         6    6           -0.1268       12.0112       0
    1303      4         4    4           -0.1268       12.0112       0
    1304      4         2    2            -0.106       12.0112       0
    1305      4         4    4           -0.1268       12.0112       0
    1306      4         7    7            0.1268       1.00797       0
    1307      4         7    7            0.1268       1.00797       0
    1308      4         7    7            0.1268       1.00797       0
    1309      4         7    7            0.1268       1.00797       0
    1310      4         7    7            0.1268       1.00797       0
    1311      4         10   10           0.1392       1.00797       0
    1312      4         9    9                 0         1.008       0
    1313      4         7    7             0.053       1.00797       0
    1314      4         7    7             0.053       1.00797       0
    1315      4         7    7            0.1268       1.00797       0
    1316      4         7    7            0.1268       1.00797       0
    1317      4         7    7             0.053       1.00797       0
    1318      4         7    7             0.053       1.00797       0
    1319      4         7    7             0.053       1.00797       0
    1320      4         7    7             0.053       1.00797       0
    1321      4         7    7             0.053       1.00797       0
    1322      4         8    8            0.2487       1.00797       0
    1323      4         8    8            0.2487       1.00797       0
    1324      4         9    9                 0         1.008       0
    1325      4         9    9                 0         1.008       0
    1326      4         7    7             0.053       1.00797       0
    1327      4         7    7             0.053       1.00797       0
    1328      4         7    7             0.053       1.00797       0
    1329      4         7    7            0.1268       1.00797       0
    1330      4         9    9                 0         1.008       0
    1331      4         7    7            0.1268       1.00797       0
    1332      4         7    7            0.1268       1.00797       0
    1333      4         7    7            0.1268       1.00797       0
    1334      4         7    7             0.053       1.00797       0
    1335      4         7    7             0.053       1.00797       0
    1336      4         7    7            0.1268       1.00797       0
    1337      4         7    7             0.053       1.00797       0
    1338      4         7    7             0.053       1.00797       0
    1339      4         7    7             0.053       1.00797       0
    1340      4         7    7             0.053       1.00797       0
    1341      4         7    7             0.053       1.00797       0
    1342      4         7    7             0.053       1.00797       0
    1343      4         7    7             0.053       1.00797       0
    1344      4         7    7            0.1268       1.00797       0
    1345      4         7    7             0.053       1.00797       0
    1346      4         7    7             0.053       1.00797       0
    1347      4         7    7             0.053       1.00797       0
    1348      4         9    9                 0         1.008       0
    1349      4         7    7             0.053       1.00797       0
    1350      4         7    7             0.053       1.00797       0
    1351      4         7    7            0.1268       1.00797       0
    1352      4         7    7            0.1268       1.00797       0
    1353      4         8    8            0.2487       1.00797       0
    1354      4         7    7            0.1268       1.00797       0
    1355      4         7    7            0.1268       1.00797       0
    1356      4         9    9                 0         1.008       0
    1357      4         7    7             0.053       1.00797       0
    1358      4         7    7             0.053       1.00797       0
    1359      4         7    7             0.053       1.00797       0
    1360      4         9    9                 0         1.008       0
    1361      4         7    7            0.1268       1.00797       0
    1362      4         7    7            0.1268       1.00797       0
    1363      4         7    7             0.053       1.00797       0
    1364      4         7    7             0.053       1.00797       0
    1365      4         7    7            0.1268       1.00797       0
    1366      4         7    7            0.1268       1.00797       0
    1367      4         7    7            0.1268       1.00797       0
    1368      4         9    9                 0         1.008       0
    1369      4         7    7            0.1268       1.00797       0
    1370      4         7    7            0.1268       1.00797       0
    1371      4         7    7            0.1268       1.00797       0
    1372      4         7    7            0.1268       1.00797       0
    1373      4         7    7            0.1268       1.00797       0
    1374      4         7    7            0.1268       1.00797       0
    1375      4         7    7            0.1268       1.00797       0
    1376      4         7    7            0.1268       1.00797       0
    1377      4         9    9                 0         1.008       0
    1378      4         9    9                 0         1.008       0
    1379      4         7    7             0.053       1.00797       0
    1380      4         7    7             0.053       1.00797       0
    1381      4         7    7             0.053       1.00797       0
    1382      4         7    7             0.053       1.00797       0
    1383      4         7    7            0.1268       1.00797       0
    1384      4         7    7            0.1268       1.00797       0
    1385      4         7    7            0.1268       1.00797       0
    1386      4         7    7             0.053       1.00797       0
    1387      4         7    7             0.053       1.00797       0
    1388      4         7    7             0.053       1.00797       0
    1389      4         7    7             0.053       1.00797       0
    1390      4         7    7             0.053       1.00797       0
    1391      4         7    7             0.053       1.00797       0
    1392      4         7    7             0.053       1.00797       0
    1393      4         7    7             0.053       1.00797       0
    1394      4         7    7             0.053       1.00797       0
    1395      4         7    7             0.053       1.00797       0
    1396      4         7    7             0.053       1.00797       0
    1397      4         7    7             0.053       1.00797       0
    1398      4         7    7             0.053       1.00797       0
    1399      4         7    7             0.053       1.00797       0
    1400      4         7    7             0.053       1.00797       0
    1401      4         7    7             0.053       1.00797       0
    1402      4         7    7             0.053       1.00797       0
    1403      4         7    7             0.053       1.00797       0
    1404      4         7    7            0.1268       1.00797       0
    1405      4         7    7            0.1268       1.00797       0
    1406      4         7    7            0.1268       1.00797       0
    1407      4         7    7            0.1268       1.00797       0
    1408      4         7    7            0.1268       1.00797       0
    1409      4         7    7             0.053       1.00797       0
    1410      4         7    7             0.053       1.00797       0
    1411      4         7    7             0.053       1.00797       0
    1412      4         7    7            0.1268       1.00797       0
    1413      4         7    7            0.1268       1.00797       0
    1414      4         7    7            0.1268       1.00797       0
    1415      4         7    7            0.1268       1.00797       0
    1416      4         7    7            0.1268       1.00797       0
    1417      4         7    7             0.053       1.00797       0
    1418      4         7    7             0.053       1.00797       0
    1419      4         7    7             0.053       1.00797       0
    1420      4         7    7             0.053       1.00797       0
    1421      4         7    7             0.053       1.00797       0
    1422      4         7    7             0.053       1.00797       0
    1423      4         7    7            0.1268       1.00797       0
    1424      4         7    7            0.1268       1.00797       0
    1425      4         7    7             0.053       1.00797       0
    1426      4         7    7             0.053       1.00797       0
    1427      4         7    7             0.053       1.00797       0
    1428      4         7    7             0.053       1.00797       0
    1429      4         7    7             0.053       1.00797       0
    1430      4         7    7             0.053       1.00797       0
    1431      4         7    7            0.1268       1.00797       0
    1432      4         7    7            0.1268       1.00797       0
    1433      4         7    7            0.1268       1.00797       0
    1434      4         7    7            0.1268       1.00797       0
    1435      4         7    7             0.053       1.00797       0
    1436      4         7    7             0.053       1.00797       0
    1437      4         7    7             0.053       1.00797       0
    1438      4         7    7             0.053       1.00797       0
    1439      4         7    7             0.053       1.00797       0
    1440      4         7    7             0.053       1.00797       0
    1441      4         7    7             0.053       1.00797       0
    1442      4         7    7             0.053       1.00797       0
    1443      4         7    7             0.053       1.00797       0
    1444      4         7    7             0.053       1.00797       0
    1445      4         7    7             0.053       1.00797       0
    1446      4         7    7             0.053       1.00797       0
    1447      4         7    7             0.053       1.00797       0
    1448      4         9    9                 0         1.008       0
    1449      4         9    9                 0         1.008       0
    1450      4         7    7            0.1268       1.00797       0
    1451      4         7    7            0.1268       1.00797       0
    1452      4         7    7            0.1268       1.00797       0
    1453      4         7    7            0.1268       1.00797       0
    1454      4         7    7             0.053       1.00797       0
    1455      4         7    7             0.053       1.00797       0
    1456      4         7    7            0.1268       1.00797       0
    1457      5         6    6           -0.1268       12.0112       0
    1458      5         6    6                 0       12.0112       0
    1459      5         6    6            0.0265       12.0112       0
    1460      5         6    6                 0       12.0112       0
    1461      5         6    6           -0.1268       12.0112       0
    1462      5         6    6                 0       12.0112       0
    1463      5         6    6            -0.012       12.0112       0
    1464      5         6    6           -0.1268       12.0112       0
    1465      5         6    6                 0       12.0112       0
    1466      5         6    6                 0       12.0112       0
    1467      5         6    6                 0       12.0112       0
    1468      5         6    6           -0.1268       12.0112       0
    1469      5         6    6                 0       12.0112       0
    1470      5         6    6            0.0827       12.0112       0
    1471      5         6    6            0.0265       12.0112       0
    1472      5         6    6           -0.1268       12.0112       0
    1473      5         19   19          -0.1272        32.064       0
    1474      5         16   16          -0.0265       15.9994       0
    1475      5         2    2            -0.106       12.0112       0
    1476      5         6    6                 0       12.0112       0
    1477      5         6    6                 0       12.0112       0
    1478      5         6    6            0.0265       12.0112       0
    1479      5         6    6                 0       12.0112       0
    1480      5         6    6           -0.1268       12.0112       0
    1481      5         6    6           -0.1268       12.0112       0
    1482      5         6    6                 0       12.0112       0
    1483      5         6    6            0.0265       12.0112       0
    1484      5         6    6                 0       12.0112       0
    1485      5         6    6                 0       12.0112       0
    1486      5         2    2            -0.106       12.0112       0
    1487      5         1    1            -0.053       12.0112       0
    1488      5         6    6            0.3964       12.0112       0
    1489      5         2    2            -0.106       12.0112       0
    1490      5         14   14          -0.3964       15.9994       0
    1491      5         15   15           -0.053       15.9994       0
    1492      5         11   11          -0.5801       14.0067       0
    1493      5         16   16          -0.0265       15.9994       0
    1494      5         16   16          -0.0265       15.9994       0
    1495      5         3    3            -0.159       12.0112       0
    1496      5         6    6            0.0265       12.0112       0
    1497      5         6    6            0.0265       12.0112       0
    1498      5         6    6           -0.1268       12.0112       0
    1499      5         6    6                 0       12.0112       0
    1500      5         6    6                 0       12.0112       0
    1501      5         6    6            -0.013       12.0112       0
    1502      5         16   16          -0.0265       15.9994       0
    1503      5         6    6                 0       12.0112       0
    1504      5         20   20            0.026        32.064       0
    1505      5         6    6           -0.1268       12.0112       0
    1506      5         6    6           -0.1268       12.0112       0
    1507      5         6    6            0.0265       12.0112       0
    1508      5         6    6            -0.013       12.0112       0
    1509      5         6    6                 0       12.0112       0
    1510      5         15   15           -0.053       15.9994       0
    1511      5         4    4            0.0265       12.0112       0
    1512      5         4    4           -0.1268       12.0112       0
    1513      5         4    4                 0       12.0112       0
    1514      5         2    2            -0.106       12.0112       0
    1515      5         4    4           -0.1268       12.0112       0
    1516      5         3    3            -0.159       12.0112       0
    1517      5         2    2            -0.106       12.0112       0
    1518      5         2    2            -0.106       12.0112       0
    1519      5         6    6                 0       12.0112       0
    1520      5         6    6             0.267       12.0112       0
    1521      5         6    6                 0       12.0112       0
    1522      5         12   12           -0.481       14.0067       0
    1523      5         6    6           -0.1268       12.0112       0
    1524      5         6    6             0.267       12.0112       0
    1525      5         3    3            -0.159       12.0112       0
    1526      5         5    5            0.1465       12.0112       0
    1527      5         13   13            -0.12       15.9994       0
    1528      5         16   16          -0.0265       15.9994       0
    1529      5         15   15           -0.053       15.9994       0
    1530      5         15   15          -0.1595       15.9994       0
    1531      5         2    2             0.027       12.0112       0
    1532      5         6    6                 0       12.0112       0
    1533      5         6    6            0.0827       12.0112       0
    1534      5         6    6            0.0265       12.0112       0
    1535      5         6    6                 0       12.0112       0
    1536      5         6    6           -0.1268       12.0112       0
    1537      5         6    6           -0.1268       12.0112       0
    1538      5         11   11          -0.4141       14.0067       0
    1539      5         6    6            0.0827       12.0112       0
    1540      5         6    6                 0       12.0112       0
    1541      5         6    6           -0.1268       12.0112       0
    1542      5         6    6            0.0265       12.0112       0
    1543      5         6    6                 0       12.0112       0
    1544      5         6    6           -0.1268       12.0112       0
    1545      5         16   16          -0.0265       15.9994       0
    1546      5         3    3            -0.159       12.0112       0
    1547      5         16   16          -0.0265       15.9994       0
    1548      5         6    6            0.0265       12.0112       0
    1549      5         6    6            0.0265       12.0112       0
    1550      5         6    6           -0.1268       12.0112       0
    1551      5         6    6                 0       12.0112       0
    1552      5         6    6           -0.1268       12.0112       0
    1553      5         6    6                 0       12.0112       0
    1554      5         15   15          -0.1595       15.9994       0
    1555      5         2    2             0.027       12.0112       0
    1556      5         6    6                 0       12.0112       0
    1557      5         6    6                 0       12.0112       0
    1558      5         6    6            0.0283       12.0112       0
    1559      5         6    6           -0.1268       12.0112       0
    1560      5         6    6            0.0265       12.0112       0
    1561      5         6    6                 0       12.0112       0
    1562      5         17   17          -0.0566       15.9994       0
    1563      5         6    6            0.0283       12.0112       0
    1564      5         6    6                 0       12.0112       0
    1565      5         6    6           -0.1268       12.0112       0
    1566      5         6    6            0.0265       12.0112       0
    1567      5         6    6           -0.1268       12.0112       0
    1568      5         6    6            0.0265       12.0112       0
    1569      5         16   16          -0.0265       15.9994       0
    1570      5         15   15           -0.053       15.9994       0
    1571      5         6    6            0.0265       12.0112       0
    1572      5         6    6           -0.1268       12.0112       0
    1573      5         6    6           -0.1268       12.0112       0
    1574      5         6    6                 0       12.0112       0
    1575      5         6    6           -0.1268       12.0112       0
    1576      5         6    6           -0.1268       12.0112       0
    1577      5         6    6                 0       12.0112       0
    1578      5         6    6            0.0265       12.0112       0
    1579      5         6    6           -0.1268       12.0112       0
    1580      5         6    6           -0.1268       12.0112       0
    1581      5         6    6           -0.1268       12.0112       0
    1582      5         6    6           -0.1268       12.0112       0
    1583      5         16   16          -0.0265       15.9994       0
    1584      5         16   16          -0.0265       15.9994       0
    1585      5         2    2            -0.106       12.0112       0
    1586      5         4    4                 0       12.0112       0
    1587      5         2    2            -0.106       12.0112       0
    1588      5         4    4           -0.1268       12.0112       0
    1589      5         4    4           -0.1268       12.0112       0
    1590      5         4    4           -0.1268       12.0112       0
    1591      5         2    2            -0.106       12.0112       0
    1592      5         1    1            -0.053       12.0112       0
    1593      5         1    1            -0.053       12.0112       0
    1594      5         2    2            -0.106       12.0112       0
    1595      5         1    1            -0.053       12.0112       0
    1596      5         1    1            -0.053       12.0112       0
    1597      5         2    2            -0.106       12.0112       0
    1598      5         2    2            -0.106       12.0112       0
    1599      5         2    2            -0.106       12.0112       0
    1600      5         2    2            -0.106       12.0112       0
    1601      5         2    2            -0.106       12.0112       0
    1602      5         6    6                 0       12.0112       0
    1603      5         6    6            -0.012       12.0112       0
    1604      5         6    6           -0.1268       12.0112       0
    1605      5         6    6                 0       12.0112       0
    1606      5         6    6           -0.1268       12.0112       0
    1607      5         6    6                 0       12.0112       0
    1608      5         6    6                 0       12.0112       0
    1609      5         6    6           -0.1268       12.0112       0
    1610      5         6    6                 0       12.0112       0
    1611      5         6    6                 0       12.0112       0
    1612      5         6    6                 0       12.0112       0
    1613      5         6    6                 0       12.0112       0
    1614      5         6    6           -0.1268       12.0112       0
    1615      5         6    6           -0.1268       12.0112       0
    1616      5         18   18            0.024        32.064       0
    1617      5         3    3            -0.159       12.0112       0
    1618      5         6    6                 0       12.0112       0
    1619      5         6    6                 0       12.0112       0
    1620      5         6    6           -0.1268       12.0112       0
    1621      5         6    6           -0.1268       12.0112       0
    1622      5         6    6           -0.1268       12.0112       0
    1623      5         6    6                 0       12.0112       0
    1624      5         6    6           -0.1268       12.0112       0
    1625      5         6    6           -0.1268       12.0112       0
    1626      5         2    2            -0.106       12.0112       0
    1627      5         2    2            -0.106       12.0112       0
    1628      5         2    2            -0.106       12.0112       0
    1629      5         6    6                 0       12.0112       0
    1630      5         6    6                 0       12.0112       0
    1631      5         6    6                 0       12.0112       0
    1632      5         6    6                 0       12.0112       0
    1633      5         6    6                 0       12.0112       0
    1634      5         6    6                 0       12.0112       0
    1635      5         6    6           -0.1268       12.0112       0
    1636      5         6    6           -0.1268       12.0112       0
    1637      5         6    6                 0       12.0112       0
    1638      5         6    6                 0       12.0112       0
    1639      5         3    3            -0.159       12.0112       0
    1640      5         3    3            -0.159       12.0112       0
    1641      5         6    6                 0       12.0112       0
    1642      5         6    6            0.0265       12.0112       0
    1643      5         6    6           -0.1268       12.0112       0
    1644      5         6    6                 0       12.0112       0
    1645      5         6    6                 0       12.0112       0
    1646      5         6    6           -0.1268       12.0112       0
    1647      5         6    6           -0.1268       12.0112       0
    1648      5         6    6                 0       12.0112       0
    1649      5         6    6           -0.1268       12.0112       0
    1650      5         6    6                 0       12.0112       0
    1651      5         1    1            -0.053       12.0112       0
    1652      5         1    1            -0.053       12.0112       0
    1653      5         2    2            -0.106       12.0112       0
    1654      5         2    2            -0.106       12.0112       0
    1655      5         2    2            -0.106       12.0112       0
    1656      5         1    1              0.08       12.0112       0
    1657      5         2    2            -0.106       12.0112       0
    1658      5         2    2            -0.106       12.0112       0
    1659      5         16   16           -0.133       15.9994       0
    1660      5         16   16          -0.0265       15.9994       0
    1661      5         6    6            -0.012       12.0112       0
    1662      5         6    6                 0       12.0112       0
    1663      5         6    6                 0       12.0112       0
    1664      5         6    6           -0.1268       12.0112       0
    1665      5         6    6           -0.1268       12.0112       0
    1666      5         6    6           -0.1268       12.0112       0
    1667      5         4    4           -0.1268       12.0112       0
    1668      5         2    2            -0.106       12.0112       0
    1669      5         4    4           -0.1268       12.0112       0
    1670      5         7    7            0.1268       1.00797       0
    1671      5         7    7            0.1268       1.00797       0
    1672      5         7    7            0.1268       1.00797       0
    1673      5         7    7            0.1268       1.00797       0
    1674      5         7    7            0.1268       1.00797       0
    1675      5         10   10           0.1392       1.00797       0
    1676      5         9    9                 0         1.008       0
    1677      5         7    7             0.053       1.00797       0
    1678      5         7    7             0.053       1.00797       0
    1679      5         7    7            0.1268       1.00797       0
    1680      5         7    7            0.1268       1.00797       0
    1681      5         7    7             0.053       1.00797       0
    1682      5         7    7             0.053       1.00797       0
    1683      5         7    7             0.053       1.00797       0
    1684      5         7    7             0.053       1.00797       0
    1685      5         7    7             0.053       1.00797       0
    1686      5         8    8            0.2487       1.00797       0
    1687      5         8    8            0.2487       1.00797       0
    1688      5         9    9                 0         1.008       0
    1689      5         9    9                 0         1.008       0
    1690      5         7    7             0.053       1.00797       0
    1691      5         7    7             0.053       1.00797       0
    1692      5         7    7             0.053       1.00797       0
    1693      5         7    7            0.1268       1.00797       0
    1694      5         9    9                 0         1.008       0
    1695      5         7    7            0.1268       1.00797       0
    1696      5         7    7            0.1268       1.00797       0
    1697      5         7    7            0.1268       1.00797       0
    1698      5         7    7             0.053       1.00797       0
    1699      5         7    7             0.053       1.00797       0
    1700      5         7    7            0.1268       1.00797       0
    1701      5         7    7             0.053       1.00797       0
    1702      5         7    7             0.053       1.00797       0
    1703      5         7    7             0.053       1.00797       0
    1704      5         7    7             0.053       1.00797       0
    1705      5         7    7             0.053       1.00797       0
    1706      5         7    7             0.053       1.00797       0
    1707      5         7    7             0.053       1.00797       0
    1708      5         7    7            0.1268       1.00797       0
    1709      5         7    7             0.053       1.00797       0
    1710      5         7    7             0.053       1.00797       0
    1711      5         7    7             0.053       1.00797       0
    1712      5         9    9                 0         1.008       0
    1713      5         7    7             0.053       1.00797       0
    1714      5         7    7             0.053       1.00797       0
    1715      5         7    7            0.1268       1.00797       0
    1716      5         7    7            0.1268       1.00797       0
    1717      5         8    8            0.2487       1.00797       0
    1718      5         7    7            0.1268       1.00797       0
    1719      5         7    7            0.1268       1.00797       0
    1720      5         9    9                 0         1.008       0
    1721      5         7    7             0.053       1.00797       0
    1722      5         7    7             0.053       1.00797       0
    1723      5         7    7             0.053       1.00797       0
    1724      5         9    9                 0         1.008       0
    1725      5         7    7            0.1268       1.00797       0
    1726      5         7    7            0.1268       1.00797       0
    1727      5         7    7             0.053       1.00797       0
    1728      5         7    7             0.053       1.00797       0
    1729      5         7    7            0.1268       1.00797       0
    1730      5         7    7            0.1268       1.00797       0
    1731      5         7    7            0.1268       1.00797       0
    1732      5         9    9                 0         1.008       0
    1733      5         7    7            0.1268       1.00797       0
    1734      5         7    7            0.1268       1.00797       0
    1735      5         7    7            0.1268       1.00797       0
    1736      5         7    7            0.1268       1.00797       0
    1737      5         7    7            0.1268       1.00797       0
    1738      5         7    7            0.1268       1.00797       0
    1739      5         7    7            0.1268       1.00797       0
    1740      5         7    7            0.1268       1.00797       0
    1741      5         9    9                 0         1.008       0
    1742      5         9    9                 0         1.008       0
    1743      5         7    7             0.053       1.00797       0
    1744      5         7    7             0.053       1.00797       0
    1745      5         7    7             0.053       1.00797       0
    1746      5         7    7             0.053       1.00797       0
    1747      5         7    7            0.1268       1.00797       0
    1748      5         7    7            0.1268       1.00797       0
    1749      5         7    7            0.1268       1.00797       0
    1750      5         7    7             0.053       1.00797       0
    1751      5         7    7             0.053       1.00797       0
    1752      5         7    7             0.053       1.00797       0
    1753      5         7    7             0.053       1.00797       0
    1754      5         7    7             0.053       1.00797       0
    1755      5         7    7             0.053       1.00797       0
    1756      5         7    7             0.053       1.00797       0
    1757      5         7    7             0.053       1.00797       0
    1758      5         7    7             0.053       1.00797       0
    1759      5         7    7             0.053       1.00797       0
    1760      5         7    7             0.053       1.00797       0
    1761      5         7    7             0.053       1.00797       0
    1762      5         7    7             0.053       1.00797       0
    1763      5         7    7             0.053       1.00797       0
    1764      5         7    7             0.053       1.00797       0
    1765      5         7    7             0.053       1.00797       0
    1766      5         7    7             0.053       1.00797       0
    1767      5         7    7             0.053       1.00797       0
    1768      5         7    7            0.1268       1.00797       0
    1769      5         7    7            0.1268       1.00797       0
    1770      5         7    7            0.1268       1.00797       0
    1771      5         7    7            0.1268       1.00797       0
    1772      5         7    7            0.1268       1.00797       0
    1773      5         7    7             0.053       1.00797       0
    1774      5         7    7             0.053       1.00797       0
    1775      5         7    7             0.053       1.00797       0
    1776      5         7    7            0.1268       1.00797       0
    1777      5         7    7            0.1268       1.00797       0
    1778      5         7    7            0.1268       1.00797       0
    1779      5         7    7            0.1268       1.00797       0
    1780      5         7    7            0.1268       1.00797       0
    1781      5         7    7             0.053       1.00797       0
    1782      5         7    7             0.053       1.00797       0
    1783      5         7    7             0.053       1.00797       0
    1784      5         7    7             0.053       1.00797       0
    1785      5         7    7             0.053       1.00797       0
    1786      5         7    7             0.053       1.00797       0
    1787      5         7    7            0.1268       1.00797       0
    1788      5         7    7            0.1268       1.00797       0
    1789      5         7    7             0.053       1.00797       0
    1790      5         7    7             0.053       1.00797       0
    1791      5         7    7             0.053       1.00797       0
    1792      5         7    7             0.053       1.00797       0
    1793      5         7    7             0.053       1.00797       0
    1794      5         7    7             0.053       1.00797       0
    1795      5         7    7            0.1268       1.00797       0
    1796      5         7    7            0.1268       1.00797       0
    1797      5         7    7            0.1268       1.00797       0
    1798      5         7    7            0.1268       1.00797       0
    1799      5         7    7             0.053       1.00797       0
    1800      5         7    7             0.053       1.00797       0
    1801      5         7    7             0.053       1.00797       0
    1802      5         7    7             0.053       1.00797       0
    1803      5         7    7             0.053       1.00797       0
    1804      5         7    7             0.053       1.00797       0
    1805      5         7    7             0.053       1.00797       0
    1806      5         7    7             0.053       1.00797       0
    1807      5         7    7             0.053       1.00797       0
    1808      5         7    7             0.053       1.00797       0
    1809      5         7    7             0.053       1.00797       0
    1810      5         7    7             0.053       1.00797       0
    1811      5         7    7             0.053       1.00797       0
    1812      5         9    9                 0         1.008       0
    1813      5         9    9                 0         1.008       0
    1814      5         7    7            0.1268       1.00797       0
    1815      5         7    7            0.1268       1.00797       0
    1816      5         7    7            0.1268       1.00797       0
    1817      5         7    7            0.1268       1.00797       0
    1818      5         7    7             0.053       1.00797       0
    1819      5         7    7             0.053       1.00797       0
    1820      5         7    7            0.1268       1.00797       0
    1821      6         6    6           -0.1268       12.0112       0
    1822      6         6    6                 0       12.0112       0
    1823      6         6    6            0.0265       12.0112       0
    1824      6         6    6                 0       12.0112       0
    1825      6         6    6           -0.1268       12.0112       0
    1826      6         6    6                 0       12.0112       0
    1827      6         6    6            -0.012       12.0112       0
    1828      6         6    6           -0.1268       12.0112       0
    1829      6         6    6                 0       12.0112       0
    1830      6         6    6                 0       12.0112       0
    1831      6         6    6                 0       12.0112       0
    1832      6         6    6           -0.1268       12.0112       0
    1833      6         6    6                 0       12.0112       0
    1834      6         6    6            0.0827       12.0112       0
    1835      6         6    6            0.0265       12.0112       0
    1836      6         6    6           -0.1268       12.0112       0
    1837      6         19   19          -0.1272        32.064       0
    1838      6         16   16          -0.0265       15.9994       0
    1839      6         2    2            -0.106       12.0112       0
    1840      6         6    6                 0       12.0112       0
    1841      6         6    6                 0       12.0112       0
    1842      6         6    6            0.0265       12.0112       0
    1843      6         6    6                 0       12.0112       0
    1844      6         6    6           -0.1268       12.0112       0
    1845      6         6    6           -0.1268       12.0112       0
    1846      6         6    6                 0       12.0112       0
    1847      6         6    6            0.0265       12.0112       0
    1848      6         6    6                 0       12.0112       0
    1849      6         6    6                 0       12.0112       0
    1850      6         2    2            -0.106       12.0112       0
    1851      6         1    1            -0.053       12.0112       0
    1852      6         6    6            0.3964       12.0112       0
    1853      6         2    2            -0.106       12.0112       0
    1854      6         14   14          -0.3964       15.9994       0
    1855      6         15   15           -0.053       15.9994       0
    1856      6         11   11          -0.5801       14.0067       0
    1857      6         16   16          -0.0265       15.9994       0
    1858      6         16   16          -0.0265       15.9994       0
    1859      6         3    3            -0.159       12.0112       0
    1860      6         6    6            0.0265       12.0112       0
    1861      6         6    6            0.0265       12.0112       0
    1862      6         6    6           -0.1268       12.0112       0
    1863      6         6    6                 0       12.0112       0
    1864      6         6    6                 0       12.0112       0
    1865      6         6    6            -0.013       12.0112       0
    1866      6         16   16          -0.0265       15.9994       0
    1867      6         6    6                 0       12.0112       0
    1868      6         20   20            0.026        32.064       0
    1869      6         6    6           -0.1268       12.0112       0
    1870      6         6    6           -0.1268       12.0112       0
    1871      6         6    6            0.0265       12.0112       0
    1872      6         6    6            -0.013       12.0112       0
    1873      6         6    6                 0       12.0112       0
    1874      6         15   15           -0.053       15.9994       0
    1875      6         4    4            0.0265       12.0112       0
    1876      6         4    4           -0.1268       12.0112       0
    1877      6         4    4                 0       12.0112       0
    1878      6         2    2            -0.106       12.0112       0
    1879      6         4    4           -0.1268       12.0112       0
    1880      6         3    3            -0.159       12.0112       0
    1881      6         2    2            -0.106       12.0112       0
    1882      6         2    2            -0.106       12.0112       0
    1883      6         6    6                 0       12.0112       0
    1884      6         6    6             0.267       12.0112       0
    1885      6         6    6                 0       12.0112       0
    1886      6         12   12           -0.481       14.0067       0
    1887      6         6    6           -0.1268       12.0112       0
    1888      6         6    6             0.267       12.0112       0
    1889      6         3    3            -0.159       12.0112       0
    1890      6         5    5            0.1465       12.0112       0
    1891      6         13   13            -0.12       15.9994       0
    1892      6         16   16          -0.0265       15.9994       0
    1893      6         15   15           -0.053       15.9994       0
    1894      6         15   15          -0.1595       15.9994       0
    1895      6         2    2             0.027       12.0112       0
    1896      6         6    6                 0       12.0112       0
    1897      6         6    6            0.0827       12.0112       0
    1898      6         6    6            0.0265       12.0112       0
    1899      6         6    6                 0       12.0112       0
    1900      6         6    6           -0.1268       12.0112       0
    1901      6         6    6           -0.1268       12.0112       0
    1902      6         11   11          -0.4141       14.0067       0
    1903      6         6    6            0.0827       12.0112       0
    1904      6         6    6                 0       12.0112       0
    1905      6         6    6           -0.1268       12.0112       0
    1906      6         6    6            0.0265       12.0112       0
    1907      6         6    6                 0       12.0112       0
    1908      6         6    6           -0.1268       12.0112       0
    1909      6         16   16          -0.0265       15.9994       0
    1910      6         3    3            -0.159       12.0112       0
    1911      6         16   16          -0.0265       15.9994       0
    1912      6         6    6            0.0265       12.0112       0
    1913      6         6    6            0.0265       12.0112       0
    1914      6         6    6           -0.1268       12.0112       0
    1915      6         6    6                 0       12.0112       0
    1916      6         6    6           -0.1268       12.0112       0
    1917      6         6    6                 0       12.0112       0
    1918      6         15   15          -0.1595       15.9994       0
    1919      6         2    2             0.027       12.0112       0
    1920      6         6    6                 0       12.0112       0
    1921      6         6    6                 0       12.0112       0
    1922      6         6    6            0.0283       12.0112       0
    1923      6         6    6           -0.1268       12.0112       0
    1924      6         6    6            0.0265       12.0112       0
    1925      6         6    6                 0       12.0112       0
    1926      6         17   17          -0.0566       15.9994       0
    1927      6         6    6            0.0283       12.0112       0
    1928      6         6    6                 0       12.0112       0
    1929      6         6    6           -0.1268       12.0112       0
    1930      6         6    6            0.0265       12.0112       0
    1931      6         6    6           -0.1268       12.0112       0
    1932      6         6    6            0.0265       12.0112       0
    1933      6         16   16          -0.0265       15.9994       0
    1934      6         15   15           -0.053       15.9994       0
    1935      6         6    6            0.0265       12.0112       0
    1936      6         6    6           -0.1268       12.0112       0
    1937      6         6    6           -0.1268       12.0112       0
    1938      6         6    6                 0       12.0112       0
    1939      6         6    6           -0.1268       12.0112       0
    1940      6         6    6           -0.1268       12.0112       0
    1941      6         6    6                 0       12.0112       0
    1942      6         6    6            0.0265       12.0112       0
    1943      6         6    6           -0.1268       12.0112       0
    1944      6         6    6           -0.1268       12.0112       0
    1945      6         6    6           -0.1268       12.0112       0
    1946      6         6    6           -0.1268       12.0112       0
    1947      6         16   16          -0.0265       15.9994       0
    1948      6         16   16          -0.0265       15.9994       0
    1949      6         2    2            -0.106       12.0112       0
    1950      6         4    4                 0       12.0112       0
    1951      6         2    2            -0.106       12.0112       0
    1952      6         4    4           -0.1268       12.0112       0
    1953      6         4    4           -0.1268       12.0112       0
    1954      6         4    4           -0.1268       12.0112       0
    1955      6         2    2            -0.106       12.0112       0
    1956      6         1    1            -0.053       12.0112       0
    1957      6         1    1            -0.053       12.0112       0
    1958      6         2    2            -0.106       12.0112       0
    1959      6         1    1            -0.053       12.0112       0
    1960      6         1    1            -0.053       12.0112       0
    1961      6         2    2            -0.106       12.0112       0
    1962      6         2    2            -0.106       12.0112       0
    1963      6         2    2            -0.106       12.0112       0
    1964      6         2    2            -0.106       12.0112       0
    1965      6         2    2            -0.106       12.0112       0
    1966      6         6    6                 0       12.0112       0
    1967      6         6    6            -0.012       12.0112       0
    1968      6         6    6           -0.1268       12.0112       0
    1969      6         6    6                 0       12.0112       0
    1970      6         6    6           -0.1268       12.0112       0
    1971      6         6    6                 0       12.0112       0
    1972      6         6    6                 0       12.0112       0
    1973      6         6    6           -0.1268       12.0112       0
    1974      6         6    6                 0       12.0112       0
    1975      6         6    6                 0       12.0112       0
    1976      6         6    6                 0       12.0112       0
    1977      6         6    6                 0       12.0112       0
    1978      6         6    6           -0.1268       12.0112       0
    1979      6         6    6           -0.1268       12.0112       0
    1980      6         18   18            0.024        32.064       0
    1981      6         3    3            -0.159       12.0112       0
    1982      6         6    6                 0       12.0112       0
    1983      6         6    6                 0       12.0112       0
    1984      6         6    6           -0.1268       12.0112       0
    1985      6         6    6           -0.1268       12.0112       0
    1986      6         6    6           -0.1268       12.0112       0
    1987      6         6    6                 0       12.0112       0
    1988      6         6    6           -0.1268       12.0112       0
    1989      6         6    6           -0.1268       12.0112       0
    1990      6         2    2            -0.106       12.0112       0
    1991      6         2    2            -0.106       12.0112       0
    1992      6         2    2            -0.106       12.0112       0
    1993      6         6    6                 0       12.0112       0
    1994      6         6    6                 0       12.0112       0
    1995      6         6    6                 0       12.0112       0
    1996      6         6    6                 0       12.0112       0
    1997      6         6    6                 0       12.0112       0
    1998      6         6    6                 0       12.0112       0
    1999      6         6    6           -0.1268       12.0112       0
    2000      6         6    6           -0.1268       12.0112       0
    2001      6         6    6                 0       12.0112       0
    2002      6         6    6                 0       12.0112       0
    2003      6         3    3            -0.159       12.0112       0
    2004      6         3    3            -0.159       12.0112       0
    2005      6         6    6                 0       12.0112       0
    2006      6         6    6            0.0265       12.0112       0
    2007      6         6    6           -0.1268       12.0112       0
    2008      6         6    6                 0       12.0112       0
    2009      6         6    6                 0       12.0112       0
    2010      6         6    6           -0.1268       12.0112       0
    2011      6         6    6           -0.1268       12.0112       0
    2012      6         6    6                 0       12.0112       0
    2013      6         6    6           -0.1268       12.0112       0
    2014      6         6    6                 0       12.0112       0
    2015      6         1    1            -0.053       12.0112       0
    2016      6         1    1            -0.053       12.0112       0
    2017      6         2    2            -0.106       12.0112       0
    2018      6         2    2            -0.106       12.0112       0
    2019      6         2    2            -0.106       12.0112       0
    2020      6         1    1              0.08       12.0112       0
    2021      6         2    2            -0.106       12.0112       0
    2022      6         2    2            -0.106       12.0112       0
    2023      6         16   16           -0.133       15.9994       0
    2024      6         16   16          -0.0265       15.9994       0
    2025      6         6    6            -0.012       12.0112       0
    2026      6         6    6                 0       12.0112       0
    2027      6         6    6                 0       12.0112       0
    2028      6         6    6           -0.1268       12.0112       0
    2029      6         6    6           -0.1268       12.0112       0
    2030      6         6    6           -0.1268       12.0112       0
    2031      6         4    4           -0.1268       12.0112       0
    2032      6         2    2            -0.106       12.0112       0
    2033      6         4    4           -0.1268       12.0112       0
    2034      6         7    7            0.1268       1.00797       0
    2035      6         7    7            0.1268       1.00797       0
    2036      6         7    7            0.1268       1.00797       0
    2037      6         7    7            0.1268       1.00797       0
    2038      6         7    7            0.1268       1.00797       0
    2039      6         10   10           0.1392       1.00797       0
    2040      6         9    9                 0         1.008       0
    2041      6         7    7             0.053       1.00797       0
    2042      6         7    7             0.053       1.00797       0
    2043      6         7    7            0.1268       1.00797       0
    2044      6         7    7            0.1268       1.00797       0
    2045      6         7    7             0.053       1.00797       0
    2046      6         7    7             0.053       1.00797       0
    2047      6         7    7             0.053       1.00797       0
    2048      6         7    7             0.053       1.00797       0
    2049      6         7    7             0.053       1.00797       0
    2050      6         8    8            0.2487       1.00797       0
    2051      6         8    8            0.2487       1.00797       0
    2052      6         9    9                 0         1.008       0
    2053      6         9    9                 0         1.008       0
    2054      6         7    7             0.053       1.00797       0
    2055      6         7    7             0.053       1.00797       0
    2056      6         7    7             0.053       1.00797       0
    2057      6         7    7            0.1268       1.00797       0
    2058      6         9    9                 0         1.008       0
    2059      6         7    7            0.1268       1.00797       0
    2060      6         7    7            0.1268       1.00797       0
    2061      6         7    7            0.1268       1.00797       0
    2062      6         7    7             0.053       1.00797       0
    2063      6         7    7             0.053       1.00797       0
    2064      6         7    7            0.1268       1.00797       0
    2065      6         7    7             0.053       1.00797       0
    2066      6         7    7             0.053       1.00797       0
    2067      6         7    7             0.053       1.00797       0
    2068      6         7    7             0.053       1.00797       0
    2069      6         7    7             0.053       1.00797       0
    2070      6         7    7             0.053       1.00797       0
    2071      6         7    7             0.053       1.00797       0
    2072      6         7    7            0.1268       1.00797       0
    2073      6         7    7             0.053       1.00797       0
    2074      6         7    7             0.053       1.00797       0
    2075      6         7    7             0.053       1.00797       0
    2076      6         9    9                 0         1.008       0
    2077      6         7    7             0.053       1.00797       0
    2078      6         7    7             0.053       1.00797       0
    2079      6         7    7            0.1268       1.00797       0
    2080      6         7    7            0.1268       1.00797       0
    2081      6         8    8            0.2487       1.00797       0
    2082      6         7    7            0.1268       1.00797       0
    2083      6         7    7            0.1268       1.00797       0
    2084      6         9    9                 0         1.008       0
    2085      6         7    7             0.053       1.00797       0
    2086      6         7    7             0.053       1.00797       0
    2087      6         7    7             0.053       1.00797       0
    2088      6         9    9                 0         1.008       0
    2089      6         7    7            0.1268       1.00797       0
    2090      6         7    7            0.1268       1.00797       0
    2091      6         7    7             0.053       1.00797       0
    2092      6         7    7             0.053       1.00797       0
    2093      6         7    7            0.1268       1.00797       0
    2094      6         7    7            0.1268       1.00797       0
    2095      6         7    7            0.1268       1.00797       0
    2096      6         9    9                 0         1.008       0
    2097      6         7    7            0.1268       1.00797       0
    2098      6         7    7            0.1268       1.00797       0
    2099      6         7    7            0.1268       1.00797       0
    2100      6         7    7            0.1268       1.00797       0
    2101      6         7    7            0.1268       1.00797       0
    2102      6         7    7            0.1268       1.00797       0
    2103      6         7    7            0.1268       1.00797       0
    2104      6         7    7            0.1268       1.00797       0
    2105      6         9    9                 0         1.008       0
    2106      6         9    9                 0         1.008       0
    2107      6         7    7             0.053       1.00797       0
    2108      6         7    7             0.053       1.00797       0
    2109      6         7    7             0.053       1.00797       0
    2110      6         7    7             0.053       1.00797       0
    2111      6         7    7            0.1268       1.00797       0
    2112      6         7    7            0.1268       1.00797       0
    2113      6         7    7            0.1268       1.00797       0
    2114      6         7    7             0.053       1.00797       0
    2115      6         7    7             0.053       1.00797       0
    2116      6         7    7             0.053       1.00797       0
    2117      6         7    7             0.053       1.00797       0
    2118      6         7    7             0.053       1.00797       0
    2119      6         7    7             0.053       1.00797       0
    2120      6         7    7             0.053       1.00797       0
    2121      6         7    7             0.053       1.00797       0
    2122      6         7    7             0.053       1.00797       0
    2123      6         7    7             0.053       1.00797       0
    2124      6         7    7             0.053       1.00797       0
    2125      6         7    7             0.053       1.00797       0
    2126      6         7    7             0.053       1.00797       0
    2127      6         7    7             0.053       1.00797       0
    2128      6         7    7             0.053       1.00797       0
    2129      6         7    7             0.053       1.00797       0
    2130      6         7    7             0.053       1.00797       0
    2131      6         7    7             0.053       1.00797       0
    2132      6         7    7            0.1268       1.00797       0
    2133      6         7    7            0.1268       1.00797       0
    2134      6         7    7            0.1268       1.00797       0
    2135      6         7    7            0.1268       1.00797       0
    2136      6         7    7            0.1268       1.00797       0
    2137      6         7    7             0.053       1.00797       0
    2138      6         7    7             0.053       1.00797       0
    2139      6         7    7             0.053       1.00797       0
    2140      6         7    7            0.1268       1.00797       0
    2141      6         7    7            0.1268       1.00797       0
    2142      6         7    7            0.1268       1.00797       0
    2143      6         7    7            0.1268       1.00797       0
    2144      6         7    7            0.1268       1.00797       0
    2145      6         7    7             0.053       1.00797       0
    2146      6         7    7             0.053       1.00797       0
    2147      6         7    7             0.053       1.00797       0
    2148      6         7    7             0.053       1.00797       0
    2149      6         7    7             0.053       1.00797       0
    2150      6         7    7             0.053       1.00797       0
    2151      6         7    7            0.1268       1.00797       0
    2152      6         7    7            0.1268       1.00797       0
    2153      6         7    7             0.053       1.00797       0
    2154      6         7    7             0.053       1.00797       0
    2155      6         7    7             0.053       1.00797       0
    2156      6         7    7             0.053       1.00797       0
    2157      6         7    7             0.053       1.00797       0
    2158      6         7    7             0.053       1.00797       0
    2159      6         7    7            0.1268       1.00797       0
    2160      6         7    7            0.1268       1.00797       0
    2161      6         7    7            0.1268       1.00797       0
    2162      6         7    7            0.1268       1.00797       0
    2163      6         7    7             0.053       1.00797       0
    2164      6         7    7             0.053       1.00797       0
    2165      6         7    7             0.053       1.00797       0
    2166      6         7    7             0.053       1.00797       0
    2167      6         7    7             0.053       1.00797       0
    2168      6         7    7             0.053       1.00797       0
    2169      6         7    7             0.053       1.00797       0
    2170      6         7    7             0.053       1.00797       0
    2171      6         7    7             0.053       1.00797       0
    2172      6         7    7             0.053       1.00797       0
    2173      6         7    7             0.053       1.00797       0
    2174      6         7    7             0.053       1.00797       0
    2175      6         7    7             0.053       1.00797       0
    2176      6         9    9                 0         1.008       0
    2177      6         9    9                 0         1.008       0
    2178      6         7    7            0.1268       1.00797       0
    2179      6         7    7            0.1268       1.00797       0
    2180      6         7    7            0.1268       1.00797       0
    2181      6         7    7            0.1268       1.00797       0
    2182      6         7    7             0.053       1.00797       0
    2183      6         7    7             0.053       1.00797       0
    2184      6         7    7            0.1268       1.00797       0
    2185      7         6    6           -0.1268       12.0112       0
    2186      7         6    6                 0       12.0112       0
    2187      7         6    6            0.0265       12.0112       0
    2188      7         6    6                 0       12.0112       0
    2189      7         6    6           -0.1268       12.0112       0
    2190      7         6    6                 0       12.0112       0
    2191      7         6    6            -0.012       12.0112       0
    2192      7         6    6           -0.1268       12.0112       0
    2193      7         6    6                 0       12.0112       0
    2194      7         6    6                 0       12.0112       0
    2195      7         6    6                 0       12.0112       0
    2196      7         6    6           -0.1268       12.0112       0
    2197      7         6    6                 0       12.0112       0
    2198      7         6    6            0.0827       12.0112       0
    2199      7         6    6            0.0265       12.0112       0
    2200      7         6    6           -0.1268       12.0112       0
    2201      7         19   19          -0.1272        32.064       0
    2202      7         16   16          -0.0265       15.9994       0
    2203      7         2    2            -0.106       12.0112       0
    2204      7         6    6                 0       12.0112       0
    2205      7         6    6                 0       12.0112       0
    2206      7         6    6            0.0265       12.0112       0
    2207      7         6    6                 0       12.0112       0
    2208      7         6    6           -0.1268       12.0112       0
    2209      7         6    6           -0.1268       12.0112       0
    2210      7         6    6                 0       12.0112       0
    2211      7         6    6            0.0265       12.0112       0
    2212      7         6    6                 0       12.0112       0
    2213      7         6    6                 0       12.0112       0
    2214      7         2    2            -0.106       12.0112       0
    2215      7         1    1            -0.053       12.0112       0
    2216      7         6    6            0.3964       12.0112       0
    2217      7         2    2            -0.106       12.0112       0
    2218      7         14   14          -0.3964       15.9994       0
    2219      7         15   15           -0.053       15.9994       0
    2220      7         11   11          -0.5801       14.0067       0
    2221      7         16   16          -0.0265       15.9994       0
    2222      7         16   16          -0.0265       15.9994       0
    2223      7         3    3            -0.159       12.0112       0
    2224      7         6    6            0.0265       12.0112       0
    2225      7         6    6            0.0265       12.0112       0
    2226      7         6    6           -0.1268       12.0112       0
    2227      7         6    6                 0       12.0112       0
    2228      7         6    6                 0       12.0112       0
    2229      7         6    6            -0.013       12.0112       0
    2230      7         16   16          -0.0265       15.9994       0
    2231      7         6    6                 0       12.0112       0
    2232      7         20   20            0.026        32.064       0
    2233      7         6    6           -0.1268       12.0112       0
    2234      7         6    6           -0.1268       12.0112       0
    2235      7         6    6            0.0265       12.0112       0
    2236      7         6    6            -0.013       12.0112       0
    2237      7         6    6                 0       12.0112       0
    2238      7         15   15           -0.053       15.9994       0
    2239      7         4    4            0.0265       12.0112       0
    2240      7         4    4           -0.1268       12.0112       0
    2241      7         4    4                 0       12.0112       0
    2242      7         2    2            -0.106       12.0112       0
    2243      7         4    4           -0.1268       12.0112       0
    2244      7         3    3            -0.159       12.0112       0
    2245      7         2    2            -0.106       12.0112       0
    2246      7         2    2            -0.106       12.0112       0
    2247      7         6    6                 0       12.0112       0
    2248      7         6    6             0.267       12.0112       0
    2249      7         6    6                 0       12.0112       0
    2250      7         12   12           -0.481       14.0067       0
    2251      7         6    6           -0.1268       12.0112       0
    2252      7         6    6             0.267       12.0112       0
    2253      7         3    3            -0.159       12.0112       0
    2254      7         5    5            0.1465       12.0112       0
    2255      7         13   13            -0.12       15.9994       0
    2256      7         16   16          -0.0265       15.9994       0
    2257      7         15   15           -0.053       15.9994       0
    2258      7         15   15          -0.1595       15.9994       0
    2259      7         2    2             0.027       12.0112       0
    2260      7         6    6                 0       12.0112       0
    2261      7         6    6            0.0827       12.0112       0
    2262      7         6    6            0.0265       12.0112       0
    2263      7         6    6                 0       12.0112       0
    2264      7         6    6           -0.1268       12.0112       0
    2265      7         6    6           -0.1268       12.0112       0
    2266      7         11   11          -0.4141       14.0067       0
    2267      7         6    6            0.0827       12.0112       0
    2268      7         6    6                 0       12.0112       0
    2269      7         6    6           -0.1268       12.0112       0
    2270      7         6    6            0.0265       12.0112       0
    2271      7         6    6                 0       12.0112       0
    2272      7         6    6           -0.1268       12.0112       0
    2273      7         16   16          -0.0265       15.9994       0
    2274      7         3    3            -0.159       12.0112       0
    2275      7         16   16          -0.0265       15.9994       0
    2276      7         6    6            0.0265       12.0112       0
    2277      7         6    6            0.0265       12.0112       0
    2278      7         6    6           -0.1268       12.0112       0
    2279      7         6    6                 0       12.0112       0
    2280      7         6    6           -0.1268       12.0112       0
    2281      7         6    6                 0       12.0112       0
    2282      7         15   15          -0.1595       15.9994       0
    2283      7         2    2             0.027       12.0112       0
    2284      7         6    6                 0       12.0112       0
    2285      7         6    6                 0       12.0112       0
    2286      7         6    6            0.0283       12.0112       0
    2287      7         6    6           -0.1268       12.0112       0
    2288      7         6    6            0.0265       12.0112       0
    2289      7         6    6                 0       12.0112       0
    2290      7         17   17          -0.0566       15.9994       0
    2291      7         6    6            0.0283       12.0112       0
    2292      7         6    6                 0       12.0112       0
    2293      7         6    6           -0.1268       12.0112       0
    2294      7         6    6            0.0265       12.0112       0
    2295      7         6    6           -0.1268       12.0112       0
    2296      7         6    6            0.0265       12.0112       0
    2297      7         16   16          -0.0265       15.9994       0
    2298      7         15   15           -0.053       15.9994       0
    2299      7         6    6            0.0265       12.0112       0
    2300      7         6    6           -0.1268       12.0112       0
    2301      7         6    6           -0.1268       12.0112       0
    2302      7         6    6                 0       12.0112       0
    2303      7         6    6           -0.1268       12.0112       0
    2304      7         6    6           -0.1268       12.0112       0
    2305      7         6    6                 0       12.0112       0
    2306      7         6    6            0.0265       12.0112       0
    2307      7         6    6           -0.1268       12.0112       0
    2308      7         6    6           -0.1268       12.0112       0
    2309      7         6    6           -0.1268       12.0112       0
    2310      7         6    6           -0.1268       12.0112       0
    2311      7         16   16          -0.0265       15.9994       0
    2312      7         16   16          -0.0265       15.9994       0
    2313      7         2    2            -0.106       12.0112       0
    2314      7         4    4                 0       12.0112       0
    2315      7         2    2            -0.106       12.0112       0
    2316      7         4    4           -0.1268       12.0112       0
    2317      7         4    4           -0.1268       12.0112       0
    2318      7         4    4           -0.1268       12.0112       0
    2319      7         2    2            -0.106       12.0112       0
    2320      7         1    1            -0.053       12.0112       0
    2321      7         1    1            -0.053       12.0112       0
    2322      7         2    2            -0.106       12.0112       0
    2323      7         1    1            -0.053       12.0112       0
    2324      7         1    1            -0.053       12.0112       0
    2325      7         2    2            -0.106       12.0112       0
    2326      7         2    2            -0.106       12.0112       0
    2327      7         2    2            -0.106       12.0112       0
    2328      7         2    2            -0.106       12.0112       0
    2329      7         2    2            -0.106       12.0112       0
    2330      7         6    6                 0       12.0112       0
    2331      7         6    6            -0.012       12.0112       0
    2332      7         6    6           -0.1268       12.0112       0
    2333      7         6    6                 0       12.0112       0
    2334      7         6    6           -0.1268       12.0112       0
    2335      7         6    6                 0       12.0112       0
    2336      7         6    6                 0       12.0112       0
    2337      7         6    6           -0.1268       12.0112       0
    2338      7         6    6                 0       12.0112       0
    2339      7         6    6                 0       12.0112       0
    2340      7         6    6                 0       12.0112       0
    2341      7         6    6                 0       12.0112       0
    2342      7         6    6           -0.1268       12.0112       0
    2343      7         6    6           -0.1268       12.0112       0
    2344      7         18   18            0.024        32.064       0
    2345      7         3    3            -0.159       12.0112       0
    2346      7         6    6                 0       12.0112       0
    2347      7         6    6                 0       12.0112       0
    2348      7         6    6           -0.1268       12.0112       0
    2349      7         6    6           -0.1268       12.0112       0
    2350      7         6    6           -0.1268       12.0112       0
    2351      7         6    6                 0       12.0112       0
    2352      7         6    6           -0.1268       12.0112       0
    2353      7         6    6           -0.1268       12.0112       0
    2354      7         2    2            -0.106       12.0112       0
    2355      7         2    2            -0.106       12.0112       0
    2356      7         2    2            -0.106       12.0112       0
    2357      7         6    6                 0       12.0112       0
    2358      7         6    6                 0       12.0112       0
    2359      7         6    6                 0       12.0112       0
    2360      7         6    6                 0       12.0112       0
    2361      7         6    6                 0       12.0112       0
    2362      7         6    6                 0       12.0112       0
    2363      7         6    6           -0.1268       12.0112       0
    2364      7         6    6           -0.1268       12.0112       0
    2365      7         6    6                 0       12.0112       0
    2366      7         6    6                 0       12.0112       0
    2367      7         3    3            -0.159       12.0112       0
    2368      7         3    3            -0.159       12.0112       0
    2369      7         6    6                 0       12.0112       0
    2370      7         6    6            0.0265       12.0112       0
    2371      7         6    6           -0.1268       12.0112       0
    2372      7         6    6                 0       12.0112       0
    2373      7         6    6                 0       12.0112       0
    2374      7         6    6           -0.1268       12.0112       0
    2375      7         6    6           -0.1268       12.0112       0
    2376      7         6    6                 0       12.0112       0
    2377      7         6    6           -0.1268       12.0112       0
    2378      7         6    6                 0       12.0112       0
    2379      7         1    1            -0.053       12.0112       0
    2380      7         1    1            -0.053       12.0112       0
    2381      7         2    2            -0.106       12.0112       0
    2382      7         2    2            -0.106       12.0112       0
    2383      7         2    2            -0.106       12.0112       0
    2384      7         1    1              0.08       12.0112       0
    2385      7         2    2            -0.106       12.0112       0
    2386      7         2    2            -0.106       12.0112       0
    2387      7         16   16           -0.133       15.9994       0
    2388      7         16   16          -0.0265       15.9994       0
    2389      7         6    6            -0.012       12.0112       0
    2390      7         6    6                 0       12.0112       0
    2391      7         6    6                 0       12.0112       0
    2392      7         6    6           -0.1268       12.0112       0
    2393      7         6    6           -0.1268       12.0112       0
    2394      7         6    6           -0.1268       12.0112       0
    2395      7         4    4           -0.1268       12.0112       0
    2396      7         2    2            -0.106       12.0112       0
    2397      7         4    4           -0.1268       12.0112       0
    2398      7         7    7            0.1268       1.00797       0
    2399      7         7    7            0.1268       1.00797       0
    2400      7         7    7            0.1268       1.00797       0
    2401      7         7    7            0.1268       1.00797       0
    2402      7         7    7            0.1268       1.00797       0
    2403      7         10   10           0.1392       1.00797       0
    2404      7         9    9                 0         1.008       0
    2405      7         7    7             0.053       1.00797       0
    2406      7         7    7             0.053       1.00797       0
    2407      7         7    7            0.1268       1.00797       0
    2408      7         7    7            0.1268       1.00797       0
    2409      7         7    7             0.053       1.00797       0
    2410      7         7    7             0.053       1.00797       0
    2411      7         7    7             0.053       1.00797       0
    2412      7         7    7             0.053       1.00797       0
    2413      7         7    7             0.053       1.00797       0
    2414      7         8    8            0.2487       1.00797       0
    2415      7         8    8            0.2487       1.00797       0
    2416      7         9    9                 0         1.008       0
    2417      7         9    9                 0         1.008       0
    2418      7         7    7             0.053       1.00797       0
    2419      7         7    7             0.053       1.00797       0
    2420      7         7    7             0.053       1.00797       0
    2421      7         7    7            0.1268       1.00797       0
    2422      7         9    9                 0         1.008       0
    2423      7         7    7            0.1268       1.00797       0
    2424      7         7    7            0.1268       1.00797       0
    2425      7         7    7            0.1268       1.00797       0
    2426      7         7    7             0.053       1.00797       0
    2427      7         7    7             0.053       1.00797       0
    2428      7         7    7            0.1268       1.00797       0
    2429      7         7    7             0.053       1.00797       0
    2430      7         7    7             0.053       1.00797       0
    2431      7         7    7             0.053       1.00797       0
    2432      7         7    7             0.053       1.00797       0
    2433      7         7    7             0.053       1.00797       0
    2434      7         7    7             0.053       1.00797       0
    2435      7         7    7             0.053       1.00797       0
    2436      7         7    7            0.1268       1.00797       0
    2437      7         7    7             0.053       1.00797       0
    2438      7         7    7             0.053       1.00797       0
    2439      7         7    7             0.053       1.00797       0
    2440      7         9    9                 0         1.008       0
    2441      7         7    7             0.053       1.00797       0
    2442      7         7    7             0.053       1.00797       0
    2443      7         7    7            0.1268       1.00797       0
    2444      7         7    7            0.1268       1.00797       0
    2445      7         8    8            0.2487       1.00797       0
    2446      7         7    7            0.1268       1.00797       0
    2447      7         7    7            0.1268       1.00797       0
    2448      7         9    9                 0         1.008       0
    2449      7         7    7             0.053       1.00797       0
    2450      7         7    7             0.053       1.00797       0
    2451      7         7    7             0.053       1.00797       0
    2452      7         9    9                 0         1.008       0
    2453      7         7    7            0.1268       1.00797       0
    2454      7         7    7            0.1268       1.00797       0
    2455      7         7    7             0.053       1.00797       0
    2456      7         7    7             0.053       1.00797       0
    2457      7         7    7            0.1268       1.00797       0
    2458      7         7    7            0.1268       1.00797       0
    2459      7         7    7            0.1268       1.00797       0
    2460      7         9    9                 0         1.008       0
    2461      7         7    7            0.1268       1.00797       0
    2462      7         7    7            0.1268       1.00797       0
    2463      7         7    7            0.1268       1.00797       0
    2464      7         7    7            0.1268       1.00797       0
    2465      7         7    7            0.1268       1.00797       0
    2466      7         7    7            0.1268       1.00797       0
    2467      7         7    7            0.1268       1.00797       0
    2468      7         7    7            0.1268       1.00797       0
    2469      7         9    9                 0         1.008       0
    2470      7         9    9                 0         1.008       0
    2471      7         7    7             0.053       1.00797       0
    2472      7         7    7             0.053       1.00797       0
    2473      7         7    7             0.053       1.00797       0
    2474      7         7    7             0.053       1.00797       0
    2475      7         7    7            0.1268       1.00797       0
    2476      7         7    7            0.1268       1.00797       0
    2477      7         7    7            0.1268       1.00797       0
    2478      7         7    7             0.053       1.00797       0
    2479      7         7    7             0.053       1.00797       0
    2480      7         7    7             0.053       1.00797       0
    2481      7         7    7             0.053       1.00797       0
    2482      7         7    7             0.053       1.00797       0
    2483      7         7    7             0.053       1.00797       0
    2484      7         7    7             0.053       1.00797       0
    2485      7         7    7             0.053       1.00797       0
    2486      7         7    7             0.053       1.00797       0
    2487      7         7    7             0.053       1.00797       0
    2488      7         7    7             0.053       1.00797       0
    2489      7         7    7             0.053       1.00797       0
    2490      7         7    7             0.053       1.00797       0
    2491      7         7    7             0.053       1.00797       0
    2492      7         7    7             0.053       1.00797       0
    2493      7         7    7             0.053       1.00797       0
    2494      7         7    7             0.053       1.00797       0
    2495      7         7    7             0.053       1.00797       0
    2496      7         7    7            0.1268       1.00797       0
    2497      7         7    7            0.1268       1.00797       0
    2498      7         7    7            0.1268       1.00797       0
    2499      7         7    7            0.1268       1.00797       0
    2500      7         7    7            0.1268       1.00797       0
    2501      7         7    7             0.053       1.00797       0
    2502      7         7    7             0.053       1.00797       0
    2503      7         7    7             0.053       1.00797       0
    2504      7         7    7            0.1268       1.00797       0
    2505      7         7    7            0.1268       1.00797       0
    2506      7         7    7            0.1268       1.00797       0
    2507      7         7    7            0.1268       1.00797       0
    2508      7         7    7            0.1268       1.00797       0
    2509      7         7    7             0.053       1.00797       0
    2510      7         7    7             0.053       1.00797       0
    2511      7         7    7             0.053       1.00797       0
    2512      7         7    7             0.053       1.00797       0
    2513      7         7    7             0.053       1.00797       0
    2514      7         7    7             0.053       1.00797       0
    2515      7         7    7            0.1268       1.00797       0
    2516      7         7    7            0.1268       1.00797       0
    2517      7         7    7             0.053       1.00797       0
    2518      7         7    7             0.053       1.00797       0
    2519      7         7    7             0.053       1.00797       0
    2520      7         7    7             0.053       1.00797       0
    2521      7         7    7             0.053       1.00797       0
    2522      7         7    7             0.053       1.00797       0
    2523      7         7    7            0.1268       1.00797       0
    2524      7         7    7            0.1268       1.00797       0
    2525      7         7    7            0.1268       1.00797       0
    2526      7         7    7            0.1268       1.00797       0
    2527      7         7    7             0.053       1.00797       0
    2528      7         7    7             0.053       1.00797       0
    2529      7         7    7             0.053       1.00797       0
    2530      7         7    7             0.053       1.00797       0
    2531      7         7    7             0.053       1.00797       0
    2532      7         7    7             0.053       1.00797       0
    2533      7         7    7             0.053       1.00797       0
    2534      7         7    7             0.053       1.00797       0
    2535      7         7    7             0.053       1.00797       0
    2536      7         7    7             0.053       1.00797       0
    2537      7         7    7             0.053       1.00797       0
    2538      7         7    7             0.053       1.00797       0
    2539      7         7    7             0.053       1.00797       0
    2540      7         9    9                 0         1.008       0
    2541      7         9    9                 0         1.008       0
    2542      7         7    7            0.1268       1.00797       0
    2543      7         7    7            0.1268       1.00797       0
    2544      7         7    7            0.1268       1.00797       0
    2545      7         7    7            0.1268       1.00797       0
    2546      7         7    7             0.053       1.00797       0
    2547      7         7    7             0.053       1.00797       0
    2548      7         7    7            0.1268       1.00797       0
    2549      8         6    6           -0.1268       12.0112       0
    2550      8         6    6                 0       12.0112       0
    2551      8         6    6            0.0265       12.0112       0
    2552      8         6    6                 0       12.0112       0
    2553      8         6    6           -0.1268       12.0112       0
    2554      8         6    6                 0       12.0112       0
    2555      8         6    6            -0.012       12.0112       0
    2556      8         6    6           -0.1268       12.0112       0
    2557      8         6    6                 0       12.0112       0
    2558      8         6    6                 0       12.0112       0
    2559      8         6    6                 0       12.0112       0
    2560      8         6    6           -0.1268       12.0112       0
    2561      8         6    6                 0       12.0112       0
    2562      8         6    6            0.0827       12.0112       0
    2563      8         6    6            0.0265       12.0112       0
    2564      8         6    6           -0.1268       12.0112       0
    2565      8         19   19          -0.1272        32.064       0
    2566      8         16   16          -0.0265       15.9994       0
    2567      8         2    2            -0.106       12.0112       0
    2568      8         6    6                 0       12.0112       0
    2569      8         6    6                 0       12.0112       0
    2570      8         6    6            0.0265       12.0112       0
    2571      8         6    6                 0       12.0112       0
    2572      8         6    6           -0.1268       12.0112       0
    2573      8         6    6           -0.1268       12.0112       0
    2574      8         6    6                 0       12.0112       0
    2575      8         6    6            0.0265       12.0112       0
    2576      8         6    6                 0       12.0112       0
    2577      8         6    6                 0       12.0112       0
    2578      8         2    2            -0.106       12.0112       0
    2579      8         1    1            -0.053       12.0112       0
    2580      8         6    6            0.3964       12.0112       0
    2581      8         2    2            -0.106       12.0112       0
    2582      8         14   14          -0.3964       15.9994       0
    2583      8         15   15           -0.053       15.9994       0
    2584      8         11   11          -0.5801       14.0067       0
    2585      8         16   16          -0.0265       15.9994       0
    2586      8         16   16          -0.0265       15.9994       0
    2587      8         3    3            -0.159       12.0112       0
    2588      8         6    6            0.0265       12.0112       0
    2589      8         6    6            0.0265       12.0112       0
    2590      8         6    6           -0.1268       12.0112       0
    2591      8         6    6                 0       12.0112       0
    2592      8         6    6                 0       12.0112       0
    2593      8         6    6            -0.013       12.0112       0
    2594      8         16   16          -0.0265       15.9994       0
    2595      8         6    6                 0       12.0112       0
    2596      8         20   20            0.026        32.064       0
    2597      8         6    6           -0.1268       12.0112       0
    2598      8         6    6           -0.1268       12.0112       0
    2599      8         6    6            0.0265       12.0112       0
    2600      8         6    6            -0.013       12.0112       0
    2601      8         6    6                 0       12.0112       0
    2602      8         15   15           -0.053       15.9994       0
    2603      8         4    4            0.0265       12.0112       0
    2604      8         4    4           -0.1268       12.0112       0
    2605      8         4    4                 0       12.0112       0
    2606      8         2    2            -0.106       12.0112       0
    2607      8         4    4           -0.1268       12.0112       0
    2608      8         3    3            -0.159       12.0112       0
    2609      8         2    2            -0.106       12.0112       0
    2610      8         2    2            -0.106       12.0112       0
    2611      8         6    6                 0       12.0112       0
    2612      8         6    6             0.267       12.0112       0
    2613      8         6    6                 0       12.0112       0
    2614      8         12   12           -0.481       14.0067       0
    2615      8         6    6           -0.1268       12.0112       0
    2616      8         6    6             0.267       12.0112       0
    2617      8         3    3            -0.159       12.0112       0
    2618      8         5    5            0.1465       12.0112       0
    2619      8         13   13            -0.12       15.9994       0
    2620      8         16   16          -0.0265       15.9994       0
    2621      8         15   15           -0.053       15.9994       0
    2622      8         15   15          -0.1595       15.9994       0
    2623      8         2    2             0.027       12.0112       0
    2624      8         6    6                 0       12.0112       0
    2625      8         6    6            0.0827       12.0112       0
    2626      8         6    6            0.0265       12.0112       0
    2627      8         6    6                 0       12.0112       0
    2628      8         6    6           -0.1268       12.0112       0
    2629      8         6    6           -0.1268       12.0112       0
    2630      8         11   11          -0.4141       14.0067       0
    2631      8         6    6            0.0827       12.0112       0
    2632      8         6    6                 0       12.0112       0
    2633      8         6    6           -0.1268       12.0112       0
    2634      8         6    6            0.0265       12.0112       0
    2635      8         6    6                 0       12.0112       0
    2636      8         6    6           -0.1268       12.0112       0
    2637      8         16   16          -0.0265       15.9994       0
    2638      8         3    3            -0.159       12.0112       0
    2639      8         16   16          -0.0265       15.9994       0
    2640      8         6    6            0.0265       12.0112       0
    2641      8         6    6            0.0265       12.0112       0
    2642      8         6    6           -0.1268       12.0112       0
    2643      8         6    6                 0       12.0112       0
    2644      8         6    6           -0.1268       12.0112       0
    2645      8         6    6                 0       12.0112       0
    2646      8         15   15          -0.1595       15.9994       0
    2647      8         2    2             0.027       12.0112       0
    2648      8         6    6                 0       12.0112       0
    2649      8         6    6                 0       12.0112       0
    2650      8         6    6            0.0283       12.0112       0
    2651      8         6    6           -0.1268       12.0112       0
    2652      8         6    6            0.0265       12.0112       0
    2653      8         6    6                 0       12.0112       0
    2654      8         17   17          -0.0566       15.9994       0
    2655      8         6    6            0.0283       12.0112       0
    2656      8         6    6                 0       12.0112       0
    2657      8         6    6           -0.1268       12.0112       0
    2658      8         6    6            0.0265       12.0112       0
    2659      8         6    6           -0.1268       12.0112       0
    2660      8         6    6            0.0265       12.0112       0
    2661      8         16   16          -0.0265       15.9994       0
    2662      8         15   15           -0.053       15.9994       0
    2663      8         6    6            0.0265       12.0112       0
    2664      8         6    6           -0.1268       12.0112       0
    2665      8         6    6           -0.1268       12.0112       0
    2666      8         6    6                 0       12.0112       0
    2667      8         6    6           -0.1268       12.0112       0
    2668      8         6    6           -0.1268       12.0112       0
    2669      8         6    6                 0       12.0112       0
    2670      8         6    6            0.0265       12.0112       0
    2671      8         6    6           -0.1268       12.0112       0
    2672      8         6    6           -0.1268       12.0112       0
    2673      8         6    6           -0.1268       12.0112       0
    2674      8         6    6           -0.1268       12.0112       0
    2675      8         16   16          -0.0265       15.9994       0
    2676      8         16   16          -0.0265       15.9994       0
    2677      8         2    2            -0.106       12.0112       0
    2678      8         4    4                 0       12.0112       0
    2679      8         2    2            -0.106       12.0112       0
    2680      8         4    4           -0.1268       12.0112       0
    2681      8         4    4           -0.1268       12.0112       0
    2682      8         4    4           -0.1268       12.0112       0
    2683      8         2    2            -0.106       12.0112       0
    2684      8         1    1            -0.053       12.0112       0
    2685      8         1    1            -0.053       12.0112       0
    2686      8         2    2            -0.106       12.0112       0
    2687      8         1    1            -0.053       12.0112       0
    2688      8         1    1            -0.053       12.0112       0
    2689      8         2    2            -0.106       12.0112       0
    2690      8         2    2            -0.106       12.0112       0
    2691      8         2    2            -0.106       12.0112       0
    2692      8         2    2            -0.106       12.0112       0
    2693      8         2    2            -0.106       12.0112       0
    2694      8         6    6                 0       12.0112       0
    2695      8         6    6            -0.012       12.0112       0
    2696      8         6    6           -0.1268       12.0112       0
    2697      8         6    6                 0       12.0112       0
    2698      8         6    6           -0.1268       12.0112       0
    2699      8         6    6                 0       12.0112       0
    2700      8         6    6                 0       12.0112       0
    2701      8         6    6           -0.1268       12.0112       0
    2702      8         6    6                 0       12.0112       0
    2703      8         6    6                 0       12.0112       0
    2704      8         6    6                 0       12.0112       0
    2705      8         6    6                 0       12.0112       0
    2706      8         6    6           -0.1268       12.0112       0
    2707      8         6    6           -0.1268       12.0112       0
    2708      8         18   18            0.024        32.064       0
    2709      8         3    3            -0.159       12.0112       0
    2710      8         6    6                 0       12.0112       0
    2711      8         6    6                 0       12.0112       0
    2712      8         6    6           -0.1268       12.0112       0
    2713      8         6    6           -0.1268       12.0112       0
    2714      8         6    6           -0.1268       12.0112       0
    2715      8         6    6                 0       12.0112       0
    2716      8         6    6           -0.1268       12.0112       0
    2717      8         6    6           -0.1268       12.0112       0
    2718      8         2    2            -0.106       12.0112       0
    2719      8         2    2            -0.106       12.0112       0
    2720      8         2    2            -0.106       12.0112       0
    2721      8         6    6                 0       12.0112       0
    2722      8         6    6                 0       12.0112       0
    2723      8         6    6                 0       12.0112       0
    2724      8         6    6                 0       12.0112       0
    2725      8         6    6                 0       12.0112       0
    2726      8         6    6                 0       12.0112       0
    2727      8         6    6           -0.1268       12.0112       0
    2728      8         6    6           -0.1268       12.0112       0
    2729      8         6    6                 0       12.0112       0
    2730      8         6    6                 0       12.0112       0
    2731      8         3    3            -0.159       12.0112       0
    2732      8         3    3            -0.159       12.0112       0
    2733      8         6    6                 0       12.0112       0
    2734      8         6    6            0.0265       12.0112       0
    2735      8         6    6           -0.1268       12.0112       0
    2736      8         6    6                 0       12.0112       0
    2737      8         6    6                 0       12.0112       0
    2738      8         6    6           -0.1268       12.0112       0
    2739      8         6    6           -0.1268       12.0112       0
    2740      8         6    6                 0       12.0112       0
    2741      8         6    6           -0.1268       12.0112       0
    2742      8         6    6                 0       12.0112       0
    2743      8         1    1            -0.053       12.0112       0
    2744      8         1    1            -0.053       12.0112       0
    2745      8         2    2            -0.106       12.0112       0
    2746      8         2    2            -0.106       12.0112       0
    2747      8         2    2            -0.106       12.0112       0
    2748      8         1    1              0.08       12.0112       0
    2749      8         2    2            -0.106       12.0112       0
    2750      8         2    2            -0.106       12.0112       0
    2751      8         16   16           -0.133       15.9994       0
    2752      8         16   16          -0.0265       15.9994       0
    2753      8         6    6            -0.012       12.0112       0
    2754      8         6    6                 0       12.0112       0
    2755      8         6    6                 0       12.0112       0
    2756      8         6    6           -0.1268       12.0112       0
    2757      8         6    6           -0.1268       12.0112       0
    2758      8         6    6           -0.1268       12.0112       0
    2759      8         4    4           -0.1268       12.0112       0
    2760      8         2    2            -0.106       12.0112       0
    2761      8         4    4           -0.1268       12.0112       0
    2762      8         7    7            0.1268       1.00797       0
    2763      8         7    7            0.1268       1.00797       0
    2764      8         7    7            0.1268       1.00797       0
    2765      8         7    7            0.1268       1.00797       0
    2766      8         7    7            0.1268       1.00797       0
    2767      8         10   10           0.1392       1.00797       0
    2768      8         9    9                 0         1.008       0
    2769      8         7    7             0.053       1.00797       0
    2770      8         7    7             0.053       1.00797       0
    2771      8         7    7            0.1268       1.00797       0
    2772      8         7    7            0.1268       1.00797       0
    2773      8         7    7             0.053       1.00797       0
    2774      8         7    7             0.053       1.00797       0
    2775      8         7    7             0.053       1.00797       0
    2776      8         7    7             0.053       1.00797       0
    2777      8         7    7             0.053       1.00797       0
    2778      8         8    8            0.2487       1.00797       0
    2779      8         8    8            0.2487       1.00797       0
    2780      8         9    9                 0         1.008       0
    2781      8         9    9                 0         1.008       0
    2782      8         7    7             0.053       1.00797       0
    2783      8         7    7             0.053       1.00797       0
    2784      8         7    7             0.053       1.00797       0
    2785      8         7    7            0.1268       1.00797       0
    2786      8         9    9                 0         1.008       0
    2787      8         7    7            0.1268       1.00797       0
    2788      8         7    7            0.1268       1.00797       0
    2789      8         7    7            0.1268       1.00797       0
    2790      8         7    7             0.053       1.00797       0
    2791      8         7    7             0.053       1.00797       0
    2792      8         7    7            0.1268       1.00797       0
    2793      8         7    7             0.053       1.00797       0
    2794      8         7    7             0.053       1.00797       0
    2795      8         7    7             0.053       1.00797       0
    2796      8         7    7             0.053       1.00797       0
    2797      8         7    7             0.053       1.00797       0
    2798      8         7    7             0.053       1.00797       0
    2799      8         7    7             0.053       1.00797       0
    2800      8         7    7            0.1268       1.00797       0
    2801      8         7    7             0.053       1.00797       0
    2802      8         7    7             0.053       1.00797       0
    2803      8         7    7             0.053       1.00797       0
    2804      8         9    9                 0         1.008       0
    2805      8         7    7             0.053       1.00797       0
    2806      8         7    7             0.053       1.00797       0
    2807      8         7    7            0.1268       1.00797       0
    2808      8         7    7            0.1268       1.00797       0
    2809      8         8    8            0.2487       1.00797       0
    2810      8         7    7            0.1268       1.00797       0
    2811      8         7    7            0.1268       1.00797       0
    2812      8         9    9                 0         1.008       0
    2813      8         7    7             0.053       1.00797       0
    2814      8         7    7             0.053       1.00797       0
    2815      8         7    7             0.053       1.00797       0
    2816      8         9    9                 0         1.008       0
    2817      8         7    7            0.1268       1.00797       0
    2818      8         7    7            0.1268       1.00797       0
    2819      8         7    7             0.053       1.00797       0
    2820      8         7    7             0.053       1.00797       0
    2821      8         7    7            0.1268       1.00797       0
    2822      8         7    7            0.1268       1.00797       0
    2823      8         7    7            0.1268       1.00797       0
    2824      8         9    9                 0         1.008       0
    2825      8         7    7            0.1268       1.00797       0
    2826      8         7    7            0.1268       1.00797       0
    2827      8         7    7            0.1268       1.00797       0
    2828      8         7    7            0.1268       1.00797       0
    2829      8         7    7            0.1268       1.00797       0
    2830      8         7    7            0.1268       1.00797       0
    2831      8         7    7            0.1268       1.00797       0
    2832      8         7    7            0.1268       1.00797       0
    2833      8         9    9                 0         1.008       0
    2834      8         9    9                 0         1.008       0
    2835      8         7    7             0.053       1.00797       0
    2836      8         7    7             0.053       1.00797       0
    2837      8         7    7             0.053       1.00797       0
    2838      8         7    7             0.053       1.00797       0
    2839      8         7    7            0.1268       1.00797       0
    2840      8         7    7            0.1268       1.00797       0
    2841      8         7    7            0.1268       1.00797       0
    2842      8         7    7             0.053       1.00797       0
    2843      8         7    7             0.053       1.00797       0
    2844      8         7    7             0.053       1.00797       0
    2845      8         7    7             0.053       1.00797       0
    2846      8         7    7             0.053       1.00797       0
    2847      8         7    7             0.053       1.00797       0
    2848      8         7    7             0.053       1.00797       0
    2849      8         7    7             0.053       1.00797       0
    2850      8         7    7             0.053       1.00797       0
    2851      8         7    7             0.053       1.00797       0
    2852      8         7    7             0.053       1.00797       0
    2853      8         7    7             0.053       1.00797       0
    2854      8         7    7             0.053       1.00797       0
    2855      8         7    7             0.053       1.00797       0
    2856      8         7    7             0.053       1.00797       0
    2857      8         7    7             0.053       1.00797       0
    2858      8         7    7             0.053       1.00797       0
    2859      8         7    7             0.053       1.00797       0
    2860      8         7    7            0.1268       1.00797       0
    2861      8         7    7            0.1268       1.00797       0
    2862      8         7    7            0.1268       1.00797       0
    2863      8         7    7            0.1268       1.00797       0
    2864      8         7    7            0.1268       1.00797       0
    2865      8         7    7             0.053       1.00797       0
    2866      8         7    7             0.053       1.00797       0
    2867      8         7    7             0.053       1.00797       0
    2868      8         7    7            0.1268       1.00797       0
    2869      8         7    7            0.1268       1.00797       0
    2870      8         7    7            0.1268       1.00797       0
    2871      8         7    7            0.1268       1.00797       0
    2872      8         7    7            0.1268       1.00797       0
    2873      8         7    7             0.053       1.00797       0
    2874      8         7    7             0.053       1.00797       0
    2875      8         7    7             0.053       1.00797       0
    2876      8         7    7             0.053       1.00797       0
    2877      8         7    7             0.053       1.00797       0
    2878      8         7    7             0.053       1.00797       0
    2879      8         7    7            0.1268       1.00797       0
    2880      8         7    7            0.1268       1.00797       0
    2881      8         7    7             0.053       1.00797       0
    2882      8         7    7             0.053       1.00797       0
    2883      8         7    7             0.053       1.00797       0
    2884      8         7    7             0.053       1.00797       0
    2885      8         7    7             0.053       1.00797       0
    2886      8         7    7             0.053       1.00797       0
    2887      8         7    7            0.1268       1.00797       0
    2888      8         7    7            0.1268       1.00797       0
    2889      8         7    7            0.1268       1.00797       0
    2890      8         7    7            0.1268       1.00797       0
    2891      8         7    7             0.053       1.00797       0
    2892      8         7    7             0.053       1.00797       0
    2893      8         7    7             0.053       1.00797       0
    2894      8         7    7             0.053       1.00797       0
    2895      8         7    7             0.053       1.00797       0
    2896      8         7    7             0.053       1.00797       0
    2897      8         7    7             0.053       1.00797       0
    2898      8         7    7             0.053       1.00797       0
    2899      8         7    7             0.053       1.00797       0
    2900      8         7    7             0.053       1.00797       0
    2901      8         7    7             0.053       1.00797       0
    2902      8         7    7             0.053       1.00797       0
    2903      8         7    7             0.053       1.00797       0
    2904      8         9    9                 0         1.008       0
    2905      8         9    9                 0         1.008       0
    2906      8         7    7            0.1268       1.00797       0
    2907      8         7    7            0.1268       1.00797       0
    2908      8         7    7            0.1268       1.00797       0
    2909      8         7    7            0.1268       1.00797       0
    2910      8         7    7             0.053       1.00797       0
    2911      8         7    7             0.053       1.00797       0
    2912      8         7    7            0.1268       1.00797       0
    2913      9         6    6           -0.1268       12.0112       0
    2914      9         6    6                 0       12.0112       0
    2915      9         6    6            0.0265       12.0112       0
    2916      9         6    6                 0       12.0112       0
    2917      9         6    6           -0.1268       12.0112       0
    2918      9         6    6                 0       12.0112       0
    2919      9         6    6            -0.012       12.0112       0
    2920      9         6    6           -0.1268       12.0112       0
    2921      9         6    6                 0       12.0112       0
    2922      9         6    6                 0       12.0112       0
    2923      9         6    6                 0       12.0112       0
    2924      9         6    6           -0.1268       12.0112       0
    2925      9         6    6                 0       12.0112       0
    2926      9         6    6            0.0827       12.0112       0
    2927      9         6    6            0.0265       12.0112       0
    2928      9         6    6           -0.1268       12.0112       0
    2929      9         19   19          -0.1272        32.064       0
    2930      9         16   16          -0.0265       15.9994       0
    2931      9         2    2            -0.106       12.0112       0
    2932      9         6    6                 0       12.0112       0
    2933      9         6    6                 0       12.0112       0
    2934      9         6    6            0.0265       12.0112       0
    2935      9         6    6                 0       12.0112       0
    2936      9         6    6           -0.1268       12.0112       0
    2937      9         6    6           -0.1268       12.0112       0
    2938      9         6    6                 0       12.0112       0
    2939      9         6    6            0.0265       12.0112       0
    2940      9         6    6                 0       12.0112       0
    2941      9         6    6                 0       12.0112       0
    2942      9         2    2            -0.106       12.0112       0
    2943      9         1    1            -0.053       12.0112       0
    2944      9         6    6            0.3964       12.0112       0
    2945      9         2    2            -0.106       12.0112       0
    2946      9         14   14          -0.3964       15.9994       0
    2947      9         15   15           -0.053       15.9994       0
    2948      9         11   11          -0.5801       14.0067       0
    2949      9         16   16          -0.0265       15.9994       0
    2950      9         16   16          -0.0265       15.9994       0
    2951      9         3    3            -0.159       12.0112       0
    2952      9         6    6            0.0265       12.0112       0
    2953      9         6    6            0.0265       12.0112       0
    2954      9         6    6           -0.1268       12.0112       0
    2955      9         6    6                 0       12.0112       0
    2956      9         6    6                 0       12.0112       0
    2957      9         6    6            -0.013       12.0112       0
    2958      9         16   16          -0.0265       15.9994       0
    2959      9         6    6                 0       12.0112       0
    2960      9         20   20            0.026        32.064       0
    2961      9         6    6           -0.1268       12.0112       0
    2962      9         6    6           -0.1268       12.0112       0
    2963      9         6    6            0.0265       12.0112       0
    2964      9         6    6            -0.013       12.0112       0
    2965      9         6    6                 0       12.0112       0
    2966      9         15   15           -0.053       15.9994       0
    2967      9         4    4            0.0265       12.0112       0
    2968      9         4    4           -0.1268       12.0112       0
    2969      9         4    4                 0       12.0112       0
    2970      9         2    2            -0.106       12.0112       0
    2971      9         4    4           -0.1268       12.0112       0
    2972      9         3    3            -0.159       12.0112       0
    2973      9         2    2            -0.106       12.0112       0
    2974      9         2    2            -0.106       12.0112       0
    2975      9         6    6                 0       12.0112       0
    2976      9         6    6             0.267       12.0112       0
    2977      9         6    6                 0       12.0112       0
    2978      9         12   12           -0.481       14.0067       0
    2979      9         6    6           -0.1268       12.0112       0
    2980      9         6    6             0.267       12.0112       0
    2981      9         3    3            -0.159       12.0112       0
    2982      9         5    5            0.1465       12.0112       0
    2983      9         13   13            -0.12       15.9994       0
    2984      9         16   16          -0.0265       15.9994       0
    2985      9         15   15           -0.053       15.9994       0
    2986      9         15   15          -0.1595       15.9994       0
    2987      9         2    2             0.027       12.0112       0
    2988      9         6    6                 0       12.0112       0
    2989      9         6    6            0.0827       12.0112       0
    2990      9         6    6            0.0265       12.0112       0
    2991      9         6    6                 0       12.0112       0
    2992      9         6    6           -0.1268       12.0112       0
    2993      9         6    6           -0.1268       12.0112       0
    2994      9         11   11          -0.4141       14.0067       0
    2995      9         6    6            0.0827       12.0112       0
    2996      9         6    6                 0       12.0112       0
    2997      9         6    6           -0.1268       12.0112       0
    2998      9         6    6            0.0265       12.0112       0
    2999      9         6    6                 0       12.0112       0
    3000      9         6    6           -0.1268       12.0112       0
    3001      9         16   16          -0.0265       15.9994       0
    3002      9         3    3            -0.159       12.0112       0
    3003      9         16   16          -0.0265       15.9994       0
    3004      9         6    6            0.0265       12.0112       0
    3005      9         6    6            0.0265       12.0112       0
    3006      9         6    6           -0.1268       12.0112       0
    3007      9         6    6                 0       12.0112       0
    3008      9         6    6           -0.1268       12.0112       0
    3009      9         6    6                 0       12.0112       0
    3010      9         15   15          -0.1595       15.9994       0
    3011      9         2    2             0.027       12.0112       0
    3012      9         6    6                 0       12.0112       0
    3013      9         6    6                 0       12.0112       0
    3014      9         6    6            0.0283       12.0112       0
    3015      9         6    6           -0.1268       12.0112       0
    3016      9         6    6            0.0265       12.0112       0
    3017      9         6    6                 0       12.0112       0
    3018      9         17   17          -0.0566       15.9994       0
    3019      9         6    6            0.0283       12.0112       0
    3020      9         6    6                 0       12.0112       0
    3021      9         6    6           -0.1268       12.0112       0
    3022      9         6    6            0.0265       12.0112       0
    3023      9         6    6           -0.1268       12.0112       0
    3024      9         6    6            0.0265       12.0112       0
    3025      9         16   16          -0.0265       15.9994       0
    3026      9         15   15           -0.053       15.9994       0
    3027      9         6    6            0.0265       12.0112       0
    3028      9         6    6           -0.1268       12.0112       0
    3029      9         6    6           -0.1268       12.0112       0
    3030      9         6    6                 0       12.0112       0
    3031      9         6    6           -0.1268       12.0112       0
    3032      9         6    6           -0.1268       12.0112       0
    3033      9         6    6                 0       12.0112       0
    3034      9         6    6            0.0265       12.0112       0
    3035      9         6    6           -0.1268       12.0112       0
    3036      9         6    6           -0.1268       12.0112       0
    3037      9         6    6           -0.1268       12.0112       0
    3038      9         6    6           -0.1268       12.0112       0
    3039      9         16   16          -0.0265       15.9994       0
    3040      9         16   16          -0.0265       15.9994       0
    3041      9         2    2            -0.106       12.0112       0
    3042      9         4    4                 0       12.0112       0
    3043      9         2    2            -0.106       12.0112       0
    3044      9         4    4           -0.1268       12.0112       0
    3045      9         4    4           -0.1268       12.0112       0
    3046      9         4    4           -0.1268       12.0112       0
    3047      9         2    2            -0.106       12.0112       0
    3048      9         1    1            -0.053       12.0112       0
    3049      9         1    1            -0.053       12.0112       0
    3050      9         2    2            -0.106       12.0112       0
    3051      9         1    1            -0.053       12.0112       0
    3052      9         1    1            -0.053       12.0112       0
    3053      9         2    2            -0.106       12.0112       0
    3054      9         2    2            -0.106       12.0112       0
    3055      9         2    2            -0.106       12.0112       0
    3056      9         2    2            -0.106       12.0112       0
    3057      9         2    2            -0.106       12.0112       0
    3058      9         6    6                 0       12.0112       0
    3059      9         6    6            -0.012       12.0112       0
    3060      9         6    6           -0.1268       12.0112       0
    3061      9         6    6                 0       12.0112       0
    3062      9         6    6           -0.1268       12.0112       0
    3063      9         6    6                 0       12.0112       0
    3064      9         6    6                 0       12.0112       0
    3065      9         6    6           -0.1268       12.0112       0
    3066      9         6    6                 0       12.0112       0
    3067      9         6    6                 0       12.0112       0
    3068      9         6    6                 0       12.0112       0
    3069      9         6    6                 0       12.0112       0
    3070      9         6    6           -0.1268       12.0112       0
    3071      9         6    6           -0.1268       12.0112       0
    3072      9         18   18            0.024        32.064       0
    3073      9         3    3            -0.159       12.0112       0
    3074      9         6    6                 0       12.0112       0
    3075      9         6    6                 0       12.0112       0
    3076      9         6    6           -0.1268       12.0112       0
    3077      9         6    6           -0.1268       12.0112       0
    3078      9         6    6           -0.1268       12.0112       0
    3079      9         6    6                 0       12.0112       0
    3080      9         6    6           -0.1268       12.0112       0
    3081      9         6    6           -0.1268       12.0112       0
    3082      9         2    2            -0.106       12.0112       0
    3083      9         2    2            -0.106       12.0112       0
    3084      9         2    2            -0.106       12.0112       0
    3085      9         6    6                 0       12.0112       0
    3086      9         6    6                 0       12.0112       0
    3087      9         6    6                 0       12.0112       0
    3088      9         6    6                 0       12.0112       0
    3089      9         6    6                 0       12.0112       0
    3090      9         6    6                 0       12.0112       0
    3091      9         6    6           -0.1268       12.0112       0
    3092      9         6    6           -0.1268       12.0112       0
    3093      9         6    6                 0       12.0112       0
    3094      9         6    6                 0       12.0112       0
    3095      9         3    3            -0.159       12.0112       0
    3096      9         3    3            -0.159       12.0112       0
    3097      9         6    6                 0       12.0112       0
    3098      9         6    6            0.0265       12.0112       0
    3099      9         6    6           -0.1268       12.0112       0
    3100      9         6    6                 0       12.0112       0
    3101      9         6    6                 0       12.0112       0
    3102      9         6    6           -0.1268       12.0112       0
    3103      9         6    6           -0.1268       12.0112       0
    3104      9         6    6                 0       12.0112       0
    3105      9         6    6           -0.1268       12.0112       0
    3106      9         6    6                 0       12.0112       0
    3107      9         1    1            -0.053       12.0112       0
    3108      9         1    1            -0.053       12.0112       0
    3109      9         2    2            -0.106       12.0112       0
    3110      9         2    2            -0.106       12.0112       0
    3111      9         2    2            -0.106       12.0112       0
    3112      9         1    1              0.08       12.0112       0
    3113      9         2    2            -0.106       12.0112       0
    3114      9         2    2            -0.106       12.0112       0
    3115      9         16   16           -0.133       15.9994       0
    3116      9         16   16          -0.0265       15.9994       0
    3117      9         6    6            -0.012       12.0112       0
    3118      9         6    6                 0       12.0112       0
    3119      9         6    6                 0       12.0112       0
    3120      9         6    6           -0.1268       12.0112       0
    3121      9         6    6           -0.1268       12.0112       0
    3122      9         6    6           -0.1268       12.0112       0
    3123      9         4    4           -0.1268       12.0112       0
    3124      9         2    2            -0.106       12.0112       0
    3125      9         4    4           -0.1268       12.0112       0
    3126      9         7    7            0.1268       1.00797       0
    3127      9         7    7            0.1268       1.00797       0
    3128      9         7    7            0.1268       1.00797       0
    3129      9         7    7            0.1268       1.00797       0
    3130      9         7    7            0.1268       1.00797       0
    3131      9         10   10           0.1392       1.00797       0
    3132      9         9    9                 0         1.008       0
    3133      9         7    7             0.053       1.00797       0
    3134      9         7    7             0.053       1.00797       0
    3135      9         7    7            0.1268       1.00797       0
    3136      9         7    7            0.1268       1.00797       0
    3137      9         7    7             0.053       1.00797       0
    3138      9         7    7             0.053       1.00797       0
    3139      9         7    7             0.053       1.00797       0
    3140      9         7    7             0.053       1.00797       0
    3141      9         7    7             0.053       1.00797       0
    3142      9         8    8            0.2487       1.00797       0
    3143      9         8    8            0.2487       1.00797       0
    3144      9         9    9                 0         1.008       0
    3145      9         9    9                 0         1.008       0
    3146      9         7    7             0.053       1.00797       0
    3147      9         7    7             0.053       1.00797       0
    3148      9         7    7             0.053       1.00797       0
    3149      9         7    7            0.1268       1.00797       0
    3150      9         9    9                 0         1.008       0
    3151      9         7    7            0.1268       1.00797       0
    3152      9         7    7            0.1268       1.00797       0
    3153      9         7    7            0.1268       1.00797       0
    3154      9         7    7             0.053       1.00797       0
    3155      9         7    7             0.053       1.00797       0
    3156      9         7    7            0.1268       1.00797       0
    3157      9         7    7             0.053       1.00797       0
    3158      9         7    7             0.053       1.00797       0
    3159      9         7    7             0.053       1.00797       0
    3160      9         7    7             0.053       1.00797       0
    3161      9         7    7             0.053       1.00797       0
    3162      9         7    7             0.053       1.00797       0
    3163      9         7    7             0.053       1.00797       0
    3164      9         7    7            0.1268       1.00797       0
    3165      9         7    7             0.053       1.00797       0
    3166      9         7    7             0.053       1.00797       0
    3167      9         7    7             0.053       1.00797       0
    3168      9         9    9                 0         1.008       0
    3169      9         7    7             0.053       1.00797       0
    3170      9         7    7             0.053       1.00797       0
    3171      9         7    7            0.1268       1.00797       0
    3172      9         7    7            0.1268       1.00797       0
    3173      9         8    8            0.2487       1.00797       0
    3174      9         7    7            0.1268       1.00797       0
    3175      9         7    7            0.1268       1.00797       0
    3176      9         9    9                 0         1.008       0
    3177      9         7    7             0.053       1.00797       0
    3178      9         7    7             0.053       1.00797       0
    3179      9         7    7             0.053       1.00797       0
    3180      9         9    9                 0         1.008       0
    3181      9         7    7            0.1268       1.00797       0
    3182      9         7    7            0.1268       1.00797       0
    3183      9         7    7             0.053       1.00797       0
    3184      9         7    7             0.053       1.00797       0
    3185      9         7    7            0.1268       1.00797       0
    3186      9         7    7            0.1268       1.00797       0
    3187      9         7    7            0.1268       1.00797       0
    3188      9         9    9                 0         1.008       0
    3189      9         7    7            0.1268       1.00797       0
    3190      9         7    7            0.1268       1.00797       0
    3191      9         7    7            0.1268       1.00797       0
    3192      9         7    7            0.1268       1.00797       0
    3193      9         7    7            0.1268       1.00797       0
    3194      9         7    7            0.1268       1.00797       0
    3195      9         7    7            0.1268       1.00797       0
    3196      9         7    7            0.1268       1.00797       0
    3197      9         9    9                 0         1.008       0
    3198      9         9    9                 0         1.008       0
    3199      9         7    7             0.053       1.00797       0
    3200      9         7    7             0.053       1.00797       0
    3201      9         7    7             0.053       1.00797       0
    3202      9         7    7             0.053       1.00797       0
    3203      9         7    7            0.1268       1.00797       0
    3204      9         7    7            0.1268       1.00797       0
    3205      9         7    7            0.1268       1.00797       0
    3206      9         7    7             0.053       1.00797       0
    3207      9         7    7             0.053       1.00797       0
    3208      9         7    7             0.053       1.00797       0
    3209      9         7    7             0.053       1.00797       0
    3210      9         7    7             0.053       1.00797       0
    3211      9         7    7             0.053       1.00797       0
    3212      9         7    7             0.053       1.00797       0
    3213      9         7    7             0.053       1.00797       0
    3214      9         7    7             0.053       1.00797       0
    3215      9         7    7             0.053       1.00797       0
    3216      9         7    7             0.053       1.00797       0
    3217      9         7    7             0.053       1.00797       0
    3218      9         7    7             0.053       1.00797       0
    3219      9         7    7             0.053       1.00797       0
    3220      9         7    7             0.053       1.00797       0
    3221      9         7    7             0.053       1.00797       0
    3222      9         7    7             0.053       1.00797       0
    3223      9         7    7             0.053       1.00797       0
    3224      9         7    7            0.1268       1.00797       0
    3225      9         7    7            0.1268       1.00797       0
    3226      9         7    7            0.1268       1.00797       0
    3227      9         7    7            0.1268       1.00797       0
    3228      9         7    7            0.1268       1.00797       0
    3229      9         7    7             0.053       1.00797       0
    3230      9         7    7             0.053       1.00797       0
    3231      9         7    7             0.053       1.00797       0
    3232      9         7    7            0.1268       1.00797       0
    3233      9         7    7            0.1268       1.00797       0
    3234      9         7    7            0.1268       1.00797       0
    3235      9         7    7            0.1268       1.00797       0
    3236      9         7    7            0.1268       1.00797       0
    3237      9         7    7             0.053       1.00797       0
    3238      9         7    7             0.053       1.00797       0
    3239      9         7    7             0.053       1.00797       0
    3240      9         7    7             0.053       1.00797       0
    3241      9         7    7             0.053       1.00797       0
    3242      9         7    7             0.053       1.00797       0
    3243      9         7    7            0.1268       1.00797       0
    3244      9         7    7            0.1268       1.00797       0
    3245      9         7    7             0.053       1.00797       0
    3246      9         7    7             0.053       1.00797       0
    3247      9         7    7             0.053       1.00797       0
    3248      9         7    7             0.053       1.00797       0
    3249      9         7    7             0.053       1.00797       0
    3250      9         7    7             0.053       1.00797       0
    3251      9         7    7            0.1268       1.00797       0
    3252      9         7    7            0.1268       1.00797       0
    3253      9         7    7            0.1268       1.00797       0
    3254      9         7    7            0.1268       1.00797       0
    3255      9         7    7             0.053       1.00797       0
    3256      9         7    7             0.053       1.00797       0
    3257      9         7    7             0.053       1.00797       0
    3258      9         7    7             0.053       1.00797       0
    3259      9         7    7             0.053       1.00797       0
    3260      9         7    7             0.053       1.00797       0
    3261      9         7    7             0.053       1.00797       0
    3262      9         7    7             0.053       1.00797       0
    3263      9         7    7             0.053       1.00797       0
    3264      9         7    7             0.053       1.00797       0
    3265      9         7    7             0.053       1.00797       0
    3266      9         7    7             0.053       1.00797       0
    3267      9         7    7             0.053       1.00797       0
    3268      9         9    9                 0         1.008       0
    3269      9         9    9                 0         1.008       0
    3270      9         7    7            0.1268       1.00797       0
    3271      9         7    7            0.1268       1.00797       0
    3272      9         7    7            0.1268       1.00797       0
    3273      9         7    7            0.1268       1.00797       0
    3274      9         7    7             0.053       1.00797       0
    3275      9         7    7             0.053       1.00797       0
    3276      9         7    7            0.1268       1.00797       0
    3277      10        6    6           -0.1268       12.0112       0
    3278      10        6    6                 0       12.0112       0
    3279      10        6    6            0.0265       12.0112       0
    3280      10        6    6                 0       12.0112       0
    3281      10        6    6           -0.1268       12.0112       0
    3282      10        6    6                 0       12.0112       0
    3283      10        6    6            -0.012       12.0112       0
    3284      10        6    6           -0.1268       12.0112       0
    3285      10        6    6                 0       12.0112       0
    3286      10        6    6                 0       12.0112       0
    3287      10        6    6                 0       12.0112       0
    3288      10        6    6           -0.1268       12.0112       0
    3289      10        6    6                 0       12.0112       0
    3290      10        6    6            0.0827       12.0112       0
    3291      10        6    6            0.0265       12.0112       0
    3292      10        6    6           -0.1268       12.0112       0
    3293      10        19   19          -0.1272        32.064       0
    3294      10        16   16          -0.0265       15.9994       0
    3295      10        2    2            -0.106       12.0112       0
    3296      10        6    6                 0       12.0112       0
    3297      10        6    6                 0       12.0112       0
    3298      10        6    6            0.0265       12.0112       0
    3299      10        6    6                 0       12.0112       0
    3300      10        6    6           -0.1268       12.0112       0
    3301      10        6    6           -0.1268       12.0112       0
    3302      10        6    6                 0       12.0112       0
    3303      10        6    6            0.0265       12.0112       0
    3304      10        6    6                 0       12.0112       0
    3305      10        6    6                 0       12.0112       0
    3306      10        2    2            -0.106       12.0112       0
    3307      10        1    1            -0.053       12.0112       0
    3308      10        6    6            0.3964       12.0112       0
    3309      10        2    2            -0.106       12.0112       0
    3310      10        14   14          -0.3964       15.9994       0
    3311      10        15   15           -0.053       15.9994       0
    3312      10        11   11          -0.5801       14.0067       0
    3313      10        16   16          -0.0265       15.9994       0
    3314      10        16   16          -0.0265       15.9994       0
    3315      10        3    3            -0.159       12.0112       0
    3316      10        6    6            0.0265       12.0112       0
    3317      10        6    6            0.0265       12.0112       0
    3318      10        6    6           -0.1268       12.0112       0
    3319      10        6    6                 0       12.0112       0
    3320      10        6    6                 0       12.0112       0
    3321      10        6    6            -0.013       12.0112       0
    3322      10        16   16          -0.0265       15.9994       0
    3323      10        6    6                 0       12.0112       0
    3324      10        20   20            0.026        32.064       0
    3325      10        6    6           -0.1268       12.0112       0
    3326      10        6    6           -0.1268       12.0112       0
    3327      10        6    6            0.0265       12.0112       0
    3328      10        6    6            -0.013       12.0112       0
    3329      10        6    6                 0       12.0112       0
    3330      10        15   15           -0.053       15.9994       0
    3331      10        4    4            0.0265       12.0112       0
    3332      10        4    4           -0.1268       12.0112       0
    3333      10        4    4                 0       12.0112       0
    3334      10        2    2            -0.106       12.0112       0
    3335      10        4    4           -0.1268       12.0112       0
    3336      10        3    3            -0.159       12.0112       0
    3337      10        2    2            -0.106       12.0112       0
    3338      10        2    2            -0.106       12.0112       0
    3339      10        6    6                 0       12.0112       0
    3340      10        6    6             0.267       12.0112       0
    3341      10        6    6                 0       12.0112       0
    3342      10        12   12           -0.481       14.0067       0
    3343      10        6    6           -0.1268       12.0112       0
    3344      10        6    6             0.267       12.0112       0
    3345      10        3    3            -0.159       12.0112       0
    3346      10        5    5            0.1465       12.0112       0
    3347      10        13   13            -0.12       15.9994       0
    3348      10        16   16          -0.0265       15.9994       0
    3349      10        15   15           -0.053       15.9994       0
    3350      10        15   15          -0.1595       15.9994       0
    3351      10        2    2             0.027       12.0112       0
    3352      10        6    6                 0       12.0112       0
    3353      10        6    6            0.0827       12.0112       0
    3354      10        6    6            0.0265       12.0112       0
    3355      10        6    6                 0       12.0112       0
    3356      10        6    6           -0.1268       12.0112       0
    3357      10        6    6           -0.1268       12.0112       0
    3358      10        11   11          -0.4141       14.0067       0
    3359      10        6    6            0.0827       12.0112       0
    3360      10        6    6                 0       12.0112       0
    3361      10        6    6           -0.1268       12.0112       0
    3362      10        6    6            0.0265       12.0112       0
    3363      10        6    6                 0       12.0112       0
    3364      10        6    6           -0.1268       12.0112       0
    3365      10        16   16          -0.0265       15.9994       0
    3366      10        3    3            -0.159       12.0112       0
    3367      10        16   16          -0.0265       15.9994       0
    3368      10        6    6            0.0265       12.0112       0
    3369      10        6    6            0.0265       12.0112       0
    3370      10        6    6           -0.1268       12.0112       0
    3371      10        6    6                 0       12.0112       0
    3372      10        6    6           -0.1268       12.0112       0
    3373      10        6    6                 0       12.0112       0
    3374      10        15   15          -0.1595       15.9994       0
    3375      10        2    2             0.027       12.0112       0
    3376      10        6    6                 0       12.0112       0
    3377      10        6    6                 0       12.0112       0
    3378      10        6    6            0.0283       12.0112       0
    3379      10        6    6           -0.1268       12.0112       0
    3380      10        6    6            0.0265       12.0112       0
    3381      10        6    6                 0       12.0112       0
    3382      10        17   17          -0.0566       15.9994       0
    3383      10        6    6            0.0283       12.0112       0
    3384      10        6    6                 0       12.0112       0
    3385      10        6    6           -0.1268       12.0112       0
    3386      10        6    6            0.0265       12.0112       0
    3387      10        6    6           -0.1268       12.0112       0
    3388      10        6    6            0.0265       12.0112       0
    3389      10        16   16          -0.0265       15.9994       0
    3390      10        15   15           -0.053       15.9994       0
    3391      10        6    6            0.0265       12.0112       0
    3392      10        6    6           -0.1268       12.0112       0
    3393      10        6    6           -0.1268       12.0112       0
    3394      10        6    6                 0       12.0112       0
    3395      10        6    6           -0.1268       12.0112       0
    3396      10        6    6           -0.1268       12.0112       0
    3397      10        6    6                 0       12.0112       0
    3398      10        6    6            0.0265       12.0112       0
    3399      10        6    6           -0.1268       12.0112       0
    3400      10        6    6           -0.1268       12.0112       0
    3401      10        6    6           -0.1268       12.0112       0
    3402      10        6    6           -0.1268       12.0112       0
    3403      10        16   16          -0.0265       15.9994       0
    3404      10        16   16          -0.0265       15.9994       0
    3405      10        2    2            -0.106       12.0112       0
    3406      10        4    4                 0       12.0112       0
    3407      10        2    2            -0.106       12.0112       0
    3408      10        4    4           -0.1268       12.0112       0
    3409      10        4    4           -0.1268       12.0112       0
    3410      10        4    4           -0.1268       12.0112       0
    3411      10        2    2            -0.106       12.0112       0
    3412      10        1    1            -0.053       12.0112       0
    3413      10        1    1            -0.053       12.0112       0
    3414      10        2    2            -0.106       12.0112       0
    3415      10        1    1            -0.053       12.0112       0
    3416      10        1    1            -0.053       12.0112       0
    3417      10        2    2            -0.106       12.0112       0
    3418      10        2    2            -0.106       12.0112       0
    3419      10        2    2            -0.106       12.0112       0
    3420      10        2    2            -0.106       12.0112       0
    3421      10        2    2            -0.106       12.0112       0
    3422      10        6    6                 0       12.0112       0
    3423      10        6    6            -0.012       12.0112       0
    3424      10        6    6           -0.1268       12.0112       0
    3425      10        6    6                 0       12.0112       0
    3426      10        6    6           -0.1268       12.0112       0
    3427      10        6    6                 0       12.0112       0
    3428      10        6    6                 0       12.0112       0
    3429      10        6    6           -0.1268       12.0112       0
    3430      10        6    6                 0       12.0112       0
    3431      10        6    6                 0       12.0112       0
    3432      10        6    6                 0       12.0112       0
    3433      10        6    6                 0       12.0112       0
    3434      10        6    6           -0.1268       12.0112       0
    3435      10        6    6           -0.1268       12.0112       0
    3436      10        18   18            0.024        32.064       0
    3437      10        3    3            -0.159       12.0112       0
    3438      10        6    6                 0       12.0112       0
    3439      10        6    6                 0       12.0112       0
    3440      10        6    6           -0.1268       12.0112       0
    3441      10        6    6           -0.1268       12.0112       0
    3442      10        6    6           -0.1268       12.0112       0
    3443      10        6    6                 0       12.0112       0
    3444      10        6    6           -0.1268       12.0112       0
    3445      10        6    6           -0.1268       12.0112       0
    3446      10        2    2            -0.106       12.0112       0
    3447      10        2    2            -0.106       12.0112       0
    3448      10        2    2            -0.106       12.0112       0
    3449      10        6    6                 0       12.0112       0
    3450      10        6    6                 0       12.0112       0
    3451      10        6    6                 0       12.0112       0
    3452      10        6    6                 0       12.0112       0
    3453      10        6    6                 0       12.0112       0
    3454      10        6    6                 0       12.0112       0
    3455      10        6    6           -0.1268       12.0112       0
    3456      10        6    6           -0.1268       12.0112       0
    3457      10        6    6                 0       12.0112       0
    3458      10        6    6                 0       12.0112       0
    3459      10        3    3            -0.159       12.0112       0
    3460      10        3    3            -0.159       12.0112       0
    3461      10        6    6                 0       12.0112       0
    3462      10        6    6            0.0265       12.0112       0
    3463      10        6    6           -0.1268       12.0112       0
    3464      10        6    6                 0       12.0112       0
    3465      10        6    6                 0       12.0112       0
    3466      10        6    6           -0.1268       12.0112       0
    3467      10        6    6           -0.1268       12.0112       0
    3468      10        6    6                 0       12.0112       0
    3469      10        6    6           -0.1268       12.0112       0
    3470      10        6    6                 0       12.0112       0
    3471      10        1    1            -0.053       12.0112       0
    3472      10        1    1            -0.053       12.0112       0
    3473      10        2    2            -0.106       12.0112       0
    3474      10        2    2            -0.106       12.0112       0
    3475      10        2    2            -0.106       12.0112       0
    3476      10        1    1              0.08       12.0112       0
    3477      10        2    2            -0.106       12.0112       0
    3478      10        2    2            -0.106       12.0112       0
    3479      10        16   16           -0.133       15.9994       0
    3480      10        16   16          -0.0265       15.9994       0
    3481      10        6    6            -0.012       12.0112       0
    3482      10        6    6                 0       12.0112       0
    3483      10        6    6                 0       12.0112       0
    3484      10        6    6           -0.1268       12.0112       0
    3485      10        6    6           -0.1268       12.0112       0
    3486      10        6    6           -0.1268       12.0112       0
    3487      10        4    4           -0.1268       12.0112       0
    3488      10        2    2            -0.106       12.0112       0
    3489      10        4    4           -0.1268       12.0112       0
    3490      10        7    7            0.1268       1.00797       0
    3491      10        7    7            0.1268       1.00797       0
    3492      10        7    7            0.1268       1.00797       0
    3493      10        7    7            0.1268       1.00797       0
    3494      10        7    7            0.1268       1.00797       0
    3495      10        10   10           0.1392       1.00797       0
    3496      10        9    9                 0         1.008       0
    3497      10        7    7             0.053       1.00797       0
    3498      10        7    7             0.053       1.00797       0
    3499      10        7    7            0.1268       1.00797       0
    3500      10        7    7            0.1268       1.00797       0
    3501      10        7    7             0.053       1.00797       0
    3502      10        7    7             0.053       1.00797       0
    3503      10        7    7             0.053       1.00797       0
    3504      10        7    7             0.053       1.00797       0
    3505      10        7    7             0.053       1.00797       0
    3506      10        8    8            0.2487       1.00797       0
    3507      10        8    8            0.2487       1.00797       0
    3508      10        9    9                 0         1.008       0
    3509      10        9    9                 0         1.008       0
    3510      10        7    7             0.053       1.00797       0
    3511      10        7    7             0.053       1.00797       0
    3512      10        7    7             0.053       1.00797       0
    3513      10        7    7            0.1268       1.00797       0
    3514      10        9    9                 0         1.008       0
    3515      10        7    7            0.1268       1.00797       0
    3516      10        7    7            0.1268       1.00797       0
    3517      10        7    7            0.1268       1.00797       0
    3518      10        7    7             0.053       1.00797       0
    3519      10        7    7             0.053       1.00797       0
    3520      10        7    7            0.1268       1.00797       0
    3521      10        7    7             0.053       1.00797       0
    3522      10        7    7             0.053       1.00797       0
    3523      10        7    7             0.053       1.00797       0
    3524      10        7    7             0.053       1.00797       0
    3525      10        7    7             0.053       1.00797       0
    3526      10        7    7             0.053       1.00797       0
    3527      10        7    7             0.053       1.00797       0
    3528      10        7    7            0.1268       1.00797       0
    3529      10        7    7             0.053       1.00797       0
    3530      10        7    7             0.053       1.00797       0
    3531      10        7    7             0.053       1.00797       0
    3532      10        9    9                 0         1.008       0
    3533      10        7    7             0.053       1.00797       0
    3534      10        7    7             0.053       1.00797       0
    3535      10        7    7            0.1268       1.00797       0
    3536      10        7    7            0.1268       1.00797       0
    3537      10        8    8            0.2487       1.00797       0
    3538      10        7    7            0.1268       1.00797       0
    3539      10        7    7            0.1268       1.00797       0
    3540      10        9    9                 0         1.008       0
    3541      10        7    7             0.053       1.00797       0
    3542      10        7    7             0.053       1.00797       0
    3543      10        7    7             0.053       1.00797       0
    3544      10        9    9                 0         1.008       0
    3545      10        7    7            0.1268       1.00797       0
    3546      10        7    7            0.1268       1.00797       0
    3547      10        7    7             0.053       1.00797       0
    3548      10        7    7             0.053       1.00797       0
    3549      10        7    7            0.1268       1.00797       0
    3550      10        7    7            0.1268       1.00797       0
    3551      10        7    7            0.1268       1.00797       0
    3552      10        9    9                 0         1.008       0
    3553      10        7    7            0.1268       1.00797       0
    3554      10        7    7            0.1268       1.00797       0
    3555      10        7    7            0.1268       1.00797       0
    3556      10        7    7            0.1268       1.00797       0
    3557      10        7    7            0.1268       1.00797       0
    3558      10        7    7            0.1268       1.00797       0
    3559      10        7    7            0.1268       1.00797       0
    3560      10        7    7            0.1268       1.00797       0
    3561      10        9    9                 0         1.008       0
    3562      10        9    9                 0         1.008       0
    3563      10        7    7             0.053       1.00797       0
    3564      10        7    7             0.053       1.00797       0
    3565      10        7    7             0.053       1.00797       0
    3566      10        7    7             0.053       1.00797       0
    3567      10        7    7            0.1268       1.00797       0
    3568      10        7    7            0.1268       1.00797       0
    3569      10        7    7            0.1268       1.00797       0
    3570      10        7    7             0.053       1.00797       0
    3571      10        7    7             0.053       1.00797       0
    3572      10        7    7             0.053       1.00797       0
    3573      10        7    7             0.053       1.00797       0
    3574      10        7    7             0.053       1.00797       0
    3575      10        7    7             0.053       1.00797       0
    3576      10        7    7             0.053       1.00797       0
    3577      10        7    7             0.053       1.00797       0
    3578      10        7    7             0.053       1.00797       0
    3579      10        7    7             0.053       1.00797       0
    3580      10        7    7             0.053       1.00797       0
    3581      10        7    7             0.053       1.00797       0
    3582      10        7    7             0.053       1.00797       0
    3583      10        7    7             0.053       1.00797       0
    3584      10        7    7             0.053       1.00797       0
    3585      10        7    7             0.053       1.00797       0
    3586      10        7    7             0.053       1.00797       0
    3587      10        7    7             0.053       1.00797       0
    3588      10        7    7            0.1268       1.00797       0
    3589      10        7    7            0.1268       1.00797       0
    3590      10        7    7            0.1268       1.00797       0
    3591      10        7    7            0.1268       1.00797       0
    3592      10        7    7            0.1268       1.00797       0
    3593      10        7    7             0.053       1.00797       0
    3594      10        7    7             0.053       1.00797       0
    3595      10        7    7             0.053       1.00797       0
    3596      10        7    7            0.1268       1.00797       0
    3597      10        7    7            0.1268       1.00797       0
    3598      10        7    7            0.1268       1.00797       0
    3599      10        7    7            0.1268       1.00797       0
    3600      10        7    7            0.1268       1.00797       0
    3601      10        7    7             0.053       1.00797       0
    3602      10        7    7             0.053       1.00797       0
    3603      10        7    7             0.053       1.00797       0
    3604      10        7    7             0.053       1.00797       0
    3605      10        7    7             0.053       1.00797       0
    3606      10        7    7             0.053       1.00797       0
    3607      10        7    7            0.1268       1.00797       0
    3608      10        7    7            0.1268       1.00797       0
    3609      10        7    7             0.053       1.00797       0
    3610      10        7    7             0.053       1.00797       0
    3611      10        7    7             0.053       1.00797       0
    3612      10        7    7             0.053       1.00797       0
    3613      10        7    7             0.053       1.00797       0
    3614      10        7    7             0.053       1.00797       0
    3615      10        7    7            0.1268       1.00797       0
    3616      10        7    7            0.1268       1.00797       0
    3617      10        7    7            0.1268       1.00797       0
    3618      10        7    7            0.1268       1.00797       0
    3619      10        7    7             0.053       1.00797       0
    3620      10        7    7             0.053       1.00797       0
    3621      10        7    7             0.053       1.00797       0
    3622      10        7    7             0.053       1.00797       0
    3623      10        7    7             0.053       1.00797       0
    3624      10        7    7             0.053       1.00797       0
    3625      10        7    7             0.053       1.00797       0
    3626      10        7    7             0.053       1.00797       0
    3627      10        7    7             0.053       1.00797       0
    3628      10        7    7             0.053       1.00797       0
    3629      10        7    7             0.053       1.00797       0
    3630      10        7    7             0.053       1.00797       0
    3631      10        7    7             0.053       1.00797       0
    3632      10        9    9                 0         1.008       0
    3633      10        9    9                 0         1.008       0
    3634      10        7    7            0.1268       1.00797       0
    3635      10        7    7            0.1268       1.00797       0
    3636      10        7    7            0.1268       1.00797       0
    3637      10        7    7            0.1268       1.00797       0
    3638      10        7    7             0.053       1.00797       0
    3639      10        7    7             0.053       1.00797       0
    3640      10        7    7            0.1268       1.00797       0

    4020 !NBOND: bonds
       1       3       1       5       1     214       2       3
       2       4       2       7       3      18       4       6
       4       9       5       6       5     215       6      16
       7       8       7      17       8      10       8     216
       9      10       9      13      10      11      11      12
      11      19      12      14      12     217      13      14
      13      15      14      36      15      16      15      37
      16     218      17     219      18     220      19      20
      19     221      19     222      20      22      20      24
      21      22      21      23      21      26      22      38
      23      25      23      28      24      25      24     223
      25     224      26      39      26      27      27      29
      27      35      28      30      28      29      29      33
      30     225      30     226      30      31      31      32
      31     143      31     227      32      34      32      33
      33     228      33     229      35      40      36     231
      36     230      37     232      38     233      39     234
      39     235      39     236      40      42      40      44
      41      42      41      43      41      46      42     237
      43      45      43      47      44      70      44      45
      45      48      46     238      47      50      47      52
      48      52      49      50      49      51      49     239
      50     240      51      53      51      54      52      53
      53      61      54      55      55      57      55      59
      56      58      56      57      56     241      57      60
      58      59      58     242      58     243      59     244
      60     245      60     246      60     247      61      62
      61     248      61     249      62      63      62     250
      62     251      63      65      63      67      64      65
      64      66      64      74      65      69      66      68
      67      68      67     252      68      73      69     253
      69     254      69     255      70      71      70      72
      72     256      73      92      74      75      75      76
      75     257      75     258      76      78      76      80
      77      78      77      79      77      82      78      91
      79      81      79      84      80      81      80     259
      81     260      82     261      82      83      83      84
      83      85      84      87      85      86      85     262
      86      88      86      89      87      88      87      90
      88     263      89     264      90     265      90     266
      90     267      91     268      92      94      92      96
      93      94      93      95      93      98      94     269
      95      97      95     138      96      97      96     270
      97     135      98      99      99     100      99     271
      99     272     100     102     100     104     101     102
     101     103     101     108     102     106     103     105
     103     273     104     105     104     128     105     129
     106     107     107     108     107     109     108     111
     109     110     109     274     110     112     110     113
     111     112     111     275     112     114     113     276
     114     115     115     117     115     119     116     117
     116     118     116     277     117     278     118     120
     118     121     119     120     119     279     120     280
     121     123     121     125     122     123     122     124
     122     127     123     281     124     126     124     282
     125     126     125     283     126     284     127     285
     128     286     129     130     129     287     129     288
     130     132     130     134     131     132     131     133
     131     289     131     290     132     291     133     134
     133     292     134     293     135     136     135     294
     135     295     136     137     136     139     136     296
     137     138     137     142     137     297     138     298
     138     299     139     140     139     143     139     300
     140     141     140     144     140     301     141     142
     141     302     141     303     142     304     142     305
     143     306     143     307     144     145     144     308
     144     309     145     146     145     310     145     311
     146     148     146     150     147     148     147     149
     147     160     148     312     149     151     149     152
     150     151     150     313     151     154     152     161
     152     153     153     155     153     314     154     155
     154     158     155     156     156     157     156     162
     157     159     157     164     158     159     158     315
     159     316     160     205     161     317     161     318
     161     319     162     163     162     166     163     165
     163     168     164     165     164     320     165     321
     166     167     166     322     167     169     167     170
     168     169     168     323     169     324     170     171
     170     325     170     326     171     172     171     327
     171     328     172     173     172     329     172     330
     173     175     173     177     174     175     174     176
     174     181     175     179     176     178     176     186
     177     178     177     183     178     184     179     180
     179     331     180     182     180     332     181     182
     181     185     182     188     183     333     183     334
     183     335     184     336     184     337     184     338
     185     187     185     190     186     187     186     204
     187     339     188     189     188     191     189     190
     189     193     190     340     191     192     191     341
     192     194     192     198     193     194     193     342
     194     195     195     196     195     199     195     343
     196     197     196     202     196     344     197     198
     197     345     197     346     198     347     198     348
     199     200     199     349     199     350     200     201
     200     203     200     351     201     202     201     352
     201     353     202     354     202     355     203     356
     204     357     205     207     205     209     206     213
     206     207     206     208     207     212     208     210
     208     358     209     210     209     359     210     360
     211     213     211     361     211     212     212     362
     212     363     213     364     365     367     365     369
     365     578     366     367     366     368     366     371
     367     382     368     370     368     373     369     370
     369     579     370     380     371     372     371     381
     372     374     372     580     373     374     373     377
     374     375     375     376     375     383     376     378
     376     581     377     378     377     379     378     400
     379     380     379     401     380     582     381     583
     382     584     383     384     383     585     383     586
     384     386     384     388     385     386     385     387
     385     390     386     402     387     389     387     392
     388     389     388     587     389     588     390     403
     390     391     391     393     391     399     392     393
     392     394     393     397     394     589     394     590
     394     395     395     396     395     507     395     591
     396     398     396     397     397     592     397     593
     399     404     400     595     400     594     401     596
     402     597     403     598     403     599     403     600
     404     406     404     408     405     406     405     407
     405     410     406     601     407     409     407     411
     408     434     408     409     409     412     410     602
     411     414     411     416     412     416     413     414
     413     415     413     603     414     604     415     417
     415     418     416     417     417     425     418     419
     419     421     419     423     420     422     420     421
     420     605     421     424     422     423     422     606
     422     607     423     608     424     609     424     610
     424     611     425     426     425     612     425     613
     426     427     426     614     426     615     427     429
     427     431     428     429     428     430     428     438
     429     433     430     432     431     432     431     616
     432     437     433     617     433     618     433     619
     434     435     434     436     436     620     437     456
     438     439     439     440     439     621     439     622
     440     442     440     444     441     442     441     443
     441     446     442     455     443     445     443     448
     444     445     444     623     445     624     446     447
     446     625     447     448     447     449     448     451
     449     450     449     626     450     452     450     453
     451     452     451     454     452     627     453     628
     454     629     454     630     454     631     455     632
     456     458     456     460     457     458     457     459
     457     462     458     633     459     461     459     502
     460     461     460     634     461     499     462     463
     463     464     463     635     463     636     464     466
     464     468     465     466     465     467     465     472
     466     470     467     469     467     637     468     469
     468     492     469     493     470     471     471     472
     471     473     472     475     473     474     473     638
     474     476     474     477     475     476     475     639
     476     478     477     640     478     479     479     481
     479     483     480     481     480     482     480     641
     481     642     482     484     482     485     483     484
     483     643     484     644     485     487     485     489
     486     487     486     488     486     491     487     645
     488     490     488     646     489     490     489     647
     490     648     491     649     492     650     493     494
     493     651     493     652     494     496     494     498
     495     496     495     497     495     653     495     654
     496     655     497     498     497     656     498     657
     499     500     499     658     499     659     500     501
     500     503     500     660     501     502     501     506
     501     661     502     662     502     663     503     504
     503     507     503     664     504     505     504     508
     504     665     505     506     505     666     505     667
     506     668     506     669     507     670     507     671
     508     509     508     672     508     673     509     510
     509     674     509     675     510     512     510     514
     511     512     511     513     511     524     512     676
     513     515     513     516     514     515     514     677
     515     518     516     525     516     517     517     519
     517     678     518     519     518     522     519     520
     520     521     520     526     521     523     521     528
     522     523     522     679     523     680     524     569
     525     681     525     682     525     683     526     527
     526     530     527     529     527     532     528     529
     528     684     529     685     530     531     530     686
     531     533     531     534     532     533     532     687
     533     688     534     535     534     689     534     690
     535     536     535     691     535     692     536     537
     536     693     536     694     537     539     537     541
     538     539     538     540     538     545     539     543
     540     542     540     550     541     547     541     542
     542     548     543     544     543     695     544     546
     544     696     545     546     545     549     546     552
     547     697     547     698     547     699     548     700
     548     701     548     702     549     551     549     554
     550     551     550     568     551     703     552     553
     552     555     553     554     553     557     554     704
     555     556     555     705     556     562     556     558
     557     558     557     706     558     559     559     560
     559     563     559     707     560     561     560     566
     560     708     561     562     561     709     561     710
     562     711     562     712     563     564     563     713
     563     714     564     565     564     567     564     715
     565     566     565     716     565     717     566     718
     566     719     567     720     568     721     569     571
     569     573     570     577     570     571     570     572
     571     576     572     574     572     722     573     574
     573     723     574     724     575     577     575     725
     575     576     576     726     576     727     577     728
     729     731     729     733     729     942     730     731
     730     732     730     735     731     746     732     734
     732     737     733     734     733     943     734     744
     735     736     735     745     736     738     736     944
     737     738     737     741     738     739     739     747
     739     740     740     742     740     945     741     742
     741     743     742     764     743     744     743     765
     744     946     745     947     746     948     747     748
     747     949     747     950     748     750     748     752
     749     750     749     751     749     754     750     766
     751     753     751     756     752     753     752     951
     753     952     754     755     754     767     755     757
     755     763     756     757     756     758     757     761
     758     953     758     954     758     759     759     760
     759     871     759     955     760     762     760     761
     761     956     761     957     763     768     764     959
     764     958     765     960     766     961     767     962
     767     963     767     964     768     770     768     772
     769     770     769     771     769     774     770     965
     771     773     771     775     772     798     772     773
     773     776     774     966     775     778     775     780
     776     780     777     778     777     779     777     967
     778     968     779     781     779     782     780     781
     781     789     782     783     783     785     783     787
     784     785     784     969     784     786     785     788
     786     787     786     970     786     971     787     972
     788     973     788     974     788     975     789     790
     789     976     789     977     790     791     790     978
     790     979     791     793     791     795     792     793
     792     794     792     802     793     797     794     796
     795     796     795     980     796     801     797     981
     797     982     797     983     798     799     798     800
     800     984     801     820     802     803     803     804
     803     985     803     986     804     806     804     808
     805     806     805     807     805     810     806     819
     807     809     807     812     808     809     808     987
     809     988     810     989     810     811     811     812
     811     813     812     815     813     814     813     990
     814     816     814     817     815     818     815     816
     816     991     817     992     818     993     818     994
     818     995     819     996     820     822     820     824
     821     822     821     823     821     826     822     997
     823     825     823     866     824     825     824     998
     825     863     826     827     827     828     827     999
     827    1000     828     830     828     832     829     830
     829     831     829     836     830     834     831     833
     831    1001     832     833     832     856     833     857
     834     835     835     836     835     837     836     839
     837     838     837    1002     838     840     838     841
     839     840     839    1003     840     842     841    1004
     842     843     843     845     843     847     844     845
     844     846     844    1005     845    1006     846     848
     846     849     847     848     847    1007     848    1008
     849     851     849     853     850     851     850     852
     850     855     851    1009     852     854     852    1010
     853     854     853    1011     854    1012     855    1013
     856    1014     857     858     857    1015     857    1016
     858     860     858     862     859     860     859     861
     859    1017     859    1018     860    1019     861     862
     861    1020     862    1021     863    1022     863    1023
     863     864     864     865     864     867     864    1024
     865     866     865     870     865    1025     866    1026
     866    1027     867     868     867     871     867    1028
     868     869     868     872     868    1029     869     870
     869    1030     869    1031     870    1032     870    1033
     871    1034     871    1035     872     873     872    1036
     872    1037     873     874     873    1038     873    1039
     874     876     874     878     875     876     875     877
     875     888     876    1040     877     879     877     880
     878     879     878    1041     879     882     880     881
     880     889     881     883     881    1042     882     883
     882     886     883     884     884     885     884     890
     885     887     885     892     886     887     886    1043
     887    1044     888     933     889    1045     889    1046
     889    1047     890     891     890     894     891     893
     891     896     892     893     892    1048     893    1049
     894     895     894    1050     895     897     895     898
     896     897     896    1051     897    1052     898     899
     898    1053     898    1054     899     900     899    1055
     899    1056     900     901     900    1057     900    1058
     901     903     901     905     902     903     902     904
     902     909     903     907     904     906     904     914
     905     906     905     911     906     912     907     908
     907    1059     908     910     908    1060     909     910
     909     913     910     916     911    1061     911    1062
     911    1063     912    1064     912    1065     912    1066
     913     915     913     918     914     915     914     932
     915    1067     916     917     916     919     917     918
     917     921     918    1068     919     920     919    1069
     920     922     920     926     921     922     921    1070
     922     923     923     924     923     927     923    1071
     924     925     924     930     924    1072     925     926
     925    1073     925    1074     926    1075     926    1076
     927     928     927    1077     927    1078     928     929
     928     931     928    1079     929     930     929    1080
     929    1081     930    1082     930    1083     931    1084
     932    1085     933     935     933     937     934     941
     934     935     934     936     935     940     936     938
     936    1086     937     938     937    1087     938    1088
     939     941     939    1089     939     940     940    1090
     940    1091     941    1092    1093    1095    1093    1097
    1093    1306    1094    1095    1094    1096    1094    1099
    1095    1110    1096    1098    1096    1101    1097    1098
    1097    1307    1098    1108    1099    1100    1099    1109
    1100    1102    1100    1308    1101    1102    1101    1105
    1102    1103    1103    1104    1103    1111    1104    1106
    1104    1309    1105    1106    1105    1107    1106    1128
    1107    1108    1107    1129    1108    1310    1109    1311
    1110    1312    1111    1112    1111    1313    1111    1314
    1112    1114    1112    1116    1113    1114    1113    1115
    1113    1118    1114    1130    1115    1117    1115    1120
    1116    1117    1116    1315    1117    1316    1118    1119
    1118    1131    1119    1121    1119    1127    1120    1121
    1120    1122    1121    1125    1122    1317    1122    1318
    1122    1123    1123    1124    1123    1235    1123    1319
    1124    1125    1124    1126    1125    1320    1125    1321
    1127    1132    1128    1322    1128    1323    1129    1324
    1130    1325    1131    1326    1131    1327    1131    1328
    1132    1134    1132    1136    1133    1134    1133    1135
    1133    1138    1134    1329    1135    1137    1135    1139
    1136    1137    1136    1162    1137    1140    1138    1330
    1139    1142    1139    1144    1140    1144    1141    1142
    1141    1143    1141    1331    1142    1332    1143    1145
    1143    1146    1144    1145    1145    1153    1146    1147
    1147    1149    1147    1151    1148    1150    1148    1149
    1148    1333    1149    1152    1150    1151    1150    1334
    1150    1335    1151    1336    1152    1337    1152    1338
    1152    1339    1153    1154    1153    1340    1153    1341
    1154    1155    1154    1342    1154    1343    1155    1157
    1155    1159    1156    1157    1156    1158    1156    1166
    1157    1161    1158    1160    1159    1160    1159    1344
    1160    1165    1161    1345    1161    1346    1161    1347
    1162    1163    1162    1164    1164    1348    1165    1184
    1166    1167    1167    1168    1167    1349    1167    1350
    1168    1170    1168    1172    1169    1170    1169    1171
    1169    1174    1170    1183    1171    1173    1171    1176
    1172    1173    1172    1351    1173    1352    1174    1353
    1174    1175    1175    1176    1175    1177    1176    1179
    1177    1178    1177    1354    1178    1180    1178    1181
    1179    1180    1179    1182    1180    1355    1181    1356
    1182    1357    1182    1358    1182    1359    1183    1360
    1184    1186    1184    1188    1185    1186    1185    1187
    1185    1190    1186    1361    1187    1189    1187    1230
    1188    1189    1188    1362    1189    1227    1190    1191
    1191    1192    1191    1363    1191    1364    1192    1194
    1192    1196    1193    1194    1193    1195    1193    1200
    1194    1198    1195    1197    1195    1365    1196    1197
    1196    1220    1197    1221    1198    1199    1199    1200
    1199    1201    1200    1203    1201    1202    1201    1366
    1202    1204    1202    1205    1203    1204    1203    1367
    1204    1206    1205    1368    1206    1207    1207    1209
    1207    1211    1208    1209    1208    1210    1208    1369
    1209    1370    1210    1212    1210    1213    1211    1212
    1211    1371    1212    1372    1213    1215    1213    1217
    1214    1215    1214    1216    1214    1219    1215    1373
    1216    1218    1216    1374    1217    1218    1217    1375
    1218    1376    1219    1377    1220    1378    1221    1222
    1221    1379    1221    1380    1222    1224    1222    1226
    1223    1224    1223    1225    1223    1381    1223    1382
    1224    1383    1225    1226    1225    1384    1226    1385
    1227    1228    1227    1386    1227    1387    1228    1229
    1228    1231    1228    1388    1229    1230    1229    1234
    1229    1389    1230    1390    1230    1391    1231    1232
    1231    1235    1231    1392    1232    1233    1232    1236
    1232    1393    1233    1234    1233    1394    1233    1395
    1234    1396    1234    1397    1235    1398    1235    1399
    1236    1237    1236    1400    1236    1401    1237    1238
    1237    1402    1237    1403    1238    1240    1238    1242
    1239    1240    1239    1241    1239    1252    1240    1404
    1241    1243    1241    1244    1242    1243    1242    1405
    1243    1246    1244    1245    1244    1253    1245    1247
    1245    1406    1246    1247    1246    1250    1247    1248
    1248    1249    1248    1254    1249    1251    1249    1256
    1250    1251    1250    1407    1251    1408    1252    1297
    1253    1409    1253    1410    1253    1411    1254    1255
    1254    1258    1255    1257    1255    1260    1256    1257
    1256    1412    1257    1413    1258    1259    1258    1414
    1259    1262    1259    1261    1260    1261    1260    1415
    1261    1416    1262    1263    1262    1417    1262    1418
    1263    1264    1263    1419    1263    1420    1264    1265
    1264    1421    1264    1422    1265    1267    1265    1269
    1266    1267    1266    1268    1266    1273    1267    1271
    1268    1270    1268    1278    1269    1275    1269    1270
    1270    1276    1271    1272    1271    1423    1272    1274
    1272    1424    1273    1274    1273    1277    1274    1280
    1275    1425    1275    1426    1275    1427    1276    1428
    1276    1429    1276    1430    1277    1279    1277    1282
    1278    1279    1278    1296    1279    1431    1280    1281
    1280    1283    1281    1282    1281    1285    1282    1432
    1283    1284    1283    1433    1284    1290    1284    1286
    1285    1286    1285    1434    1286    1287    1287    1288
    1287    1291    1287    1435    1288    1289    1288    1294
    1288    1436    1289    1290    1289    1437    1289    1438
    1290    1439    1290    1440    1291    1292    1291    1441
    1291    1442    1292    1293    1292    1295    1292    1443
    1293    1294    1293    1444    1293    1445    1294    1446
    1294    1447    1295    1448    1296    1449    1297    1299
    1297    1301    1298    1299    1298    1300    1298    1305
    1299    1304    1300    1302    1300    1450    1301    1302
    1301    1451    1302    1452    1303    1305    1303    1453
    1303    1304    1304    1454    1304    1455    1305    1456
    1457    1459    1457    1461    1457    1670    1458    1459
    1458    1460    1458    1463    1459    1474    1460    1462
    1460    1465    1461    1462    1461    1671    1462    1472
    1463    1464    1463    1473    1464    1466    1464    1672
    1465    1466    1465    1469    1466    1467    1467    1468
    1467    1475    1468    1470    1468    1673    1469    1470
    1469    1471    1470    1492    1471    1472    1471    1493
    1472    1674    1473    1675    1474    1676    1475    1476
    1475    1677    1475    1678    1476    1478    1476    1480
    1477    1478    1477    1479    1477    1482    1478    1494
    1479    1481    1479    1484    1480    1481    1480    1679
    1481    1680    1482    1483    1482    1495    1483    1485
    1483    1491    1484    1485    1484    1486    1485    1489
    1486    1487    1486    1681    1486    1682    1487    1488
    1487    1599    1487    1683    1488    1489    1488    1490
    1489    1684    1489    1685    1491    1496    1492    1686
    1492    1687    1493    1688    1494    1689    1495    1690
    1495    1691    1495    1692    1496    1498    1496    1500
    1497    1498    1497    1499    1497    1502    1498    1693
    1499    1501    1499    1503    1500    1526    1500    1501
    1501    1504    1502    1694    1503    1506    1503    1508
    1504    1508    1505    1506    1505    1507    1505    1695
    1506    1696    1507    1509    1507    1510    1508    1509
    1509    1517    1510    1511    1511    1513    1511    1515
    1512    1513    1512    1697    1512    1514    1513    1516
    1514    1515    1514    1698    1514    1699    1515    1700
    1516    1701    1516    1702    1516    1703    1517    1518
    1517    1704    1517    1705    1518    1519    1518    1706
    1518    1707    1519    1521    1519    1523    1520    1521
    1520    1522    1520    1530    1521    1525    1522    1524
    1523    1524    1523    1708    1524    1529    1525    1709
    1525    1710    1525    1711    1526    1527    1526    1528
    1528    1712    1529    1548    1530    1531    1531    1532
    1531    1713    1531    1714    1532    1534    1532    1536
    1533    1534    1533    1535    1533    1538    1534    1547
    1535    1537    1535    1540    1536    1537    1536    1715
    1537    1716    1538    1717    1538    1539    1539    1540
    1539    1541    1540    1543    1541    1542    1541    1718
    1542    1544    1542    1545    1543    1546    1543    1544
    1544    1719    1545    1720    1546    1721    1546    1722
    1546    1723    1547    1724    1548    1550    1548    1552
    1549    1550    1549    1551    1549    1554    1550    1725
    1551    1594    1551    1553    1552    1553    1552    1726
    1553    1591    1554    1555    1555    1556    1555    1727
    1555    1728    1556    1558    1556    1560    1557    1558
    1557    1559    1557    1564    1558    1562    1559    1561
    1559    1729    1560    1561    1560    1584    1561    1585
    1562    1563    1563    1564    1563    1565    1564    1567
    1565    1566    1565    1730    1566    1568    1566    1569
    1567    1568    1567    1731    1568    1570    1569    1732
    1570    1571    1571    1573    1571    1575    1572    1573
    1572    1574    1572    1733    1573    1734    1574    1576
    1574    1577    1575    1576    1575    1735    1576    1736
    1577    1579    1577    1581    1578    1579    1578    1580
    1578    1583    1579    1737    1580    1582    1580    1738
    1581    1582    1581    1739    1582    1740    1583    1741
    1584    1742    1585    1586    1585    1743    1585    1744
    1586    1588    1586    1590    1587    1588    1587    1589
    1587    1745    1587    1746    1588    1747    1589    1590
    1589    1748    1590    1749    1591    1750    1591    1751
    1591    1592    1592    1593    1592    1595    1592    1752
    1593    1594    1593    1598    1593    1753    1594    1754
    1594    1755    1595    1596    1595    1599    1595    1756
    1596    1597    1596    1600    1596    1757    1597    1598
    1597    1758    1597    1759    1598    1760    1598    1761
    1599    1762    1599    1763    1600    1601    1600    1764
    1600    1765    1601    1602    1601    1766    1601    1767
    1602    1604    1602    1606    1603    1604    1603    1605
    1603    1616    1604    1768    1605    1607    1605    1608
    1606    1607    1606    1769    1607    1610    1608    1617
    1608    1609    1609    1611    1609    1770    1610    1611
    1610    1614    1611    1612    1612    1613    1612    1618
    1613    1615    1613    1620    1614    1615    1614    1771
    1615    1772    1616    1661    1617    1773    1617    1774
    1617    1775    1618    1619    1618    1622    1619    1621
    1619    1624    1620    1621    1620    1776    1621    1777
    1622    1623    1622    1778    1623    1626    1623    1625
    1624    1625    1624    1779    1625    1780    1626    1627
    1626    1781    1626    1782    1627    1628    1627    1783
    1627    1784    1628    1629    1628    1785    1628    1786
    1629    1631    1629    1633    1630    1631    1630    1632
    1630    1637    1631    1635    1632    1634    1632    1642
    1633    1634    1633    1639    1634    1640    1635    1636
    1635    1787    1636    1638    1636    1788    1637    1638
    1637    1641    1638    1644    1639    1789    1639    1790
    1639    1791    1640    1792    1640    1793    1640    1794
    1641    1643    1641    1646    1642    1643    1642    1660
    1643    1795    1644    1645    1644    1647    1645    1646
    1645    1649    1646    1796    1647    1648    1647    1797
    1648    1654    1648    1650    1649    1650    1649    1798
    1650    1651    1651    1652    1651    1655    1651    1799
    1652    1653    1652    1658    1652    1800    1653    1654
    1653    1801    1653    1802    1654    1803    1654    1804
    1655    1656    1655    1805    1655    1806    1656    1657
    1656    1659    1656    1807    1657    1658    1657    1808
    1657    1809    1658    1810    1658    1811    1659    1812
    1660    1813    1661    1663    1661    1665    1662    1669
    1662    1663    1662    1664    1663    1668    1664    1666
    1664    1814    1665    1666    1665    1815    1666    1816
    1667    1669    1667    1817    1667    1668    1668    1818
    1668    1819    1669    1820    1821    1823    1821    1825
    1821    2034    1822    1823    1822    1824    1822    1827
    1823    1838    1824    1826    1824    1829    1825    1826
    1825    2035    1826    1836    1827    1828    1827    1837
    1828    1830    1828    2036    1829    1830    1829    1833
    1830    1831    1831    1832    1831    1839    1832    1834
    1832    2037    1833    1834    1833    1835    1834    1856
    1835    1836    1835    1857    1836    2038    1837    2039
    1838    2040    1839    1840    1839    2041    1839    2042
    1840    1842    1840    1844    1841    1842    1841    1843
    1841    1846    1842    1858    1843    1845    1843    1848
    1844    1845    1844    2043    1845    2044    1846    1847
    1846    1859    1847    1849    1847    1855    1848    1849
    1848    1850    1849    1853    1850    2045    1850    2046
    1850    1851    1851    1852    1851    1963    1851    2047
    1852    1853    1852    1854    1853    2048    1853    2049
    1855    1860    1856    2051    1856    2050    1857    2052
    1858    2053    1859    2054    1859    2055    1859    2056
    1860    1862    1860    1864    1861    1862    1861    1863
    1861    1866    1862    2057    1863    1865    1863    1867
    1864    1865    1864    1890    1865    1868    1866    2058
    1867    1870    1867    1872    1868    1872    1869    1870
    1869    1871    1869    2059    1870    2060    1871    1873
    1871    1874    1872    1873    1873    1881    1874    1875
    1875    1877    1875    1879    1876    1877    1876    2061
    1876    1878    1877    1880    1878    1879    1878    2062
    1878    2063    1879    2064    1880    2065    1880    2066
    1880    2067    1881    1882    1881    2068    1881    2069
    1882    1883    1882    2070    1882    2071    1883    1885
    1883    1887    1884    1885    1884    1886    1884    1894
    1885    1889    1886    1888    1887    1888    1887    2072
    1888    1893    1889    2073    1889    2074    1889    2075
    1890    1891    1890    1892    1892    2076    1893    1912
    1894    1895    1895    1896    1895    2077    1895    2078
    1896    1898    1896    1900    1897    1898    1897    1899
    1897    1902    1898    1911    1899    1901    1899    1904
    1900    1901    1900    2079    1901    2080    1902    2081
    1902    1903    1903    1904    1903    1905    1904    1907
    1905    1906    1905    2082    1906    1908    1906    1909
    1907    1908    1907    1910    1908    2083    1909    2084
    1910    2085    1910    2086    1910    2087    1911    2088
    1912    1914    1912    1916    1913    1914    1913    1915
    1913    1918    1914    2089    1915    1958    1915    1917
    1916    1917    1916    2090    1917    1955    1918    1919
    1919    1920    1919    2091    1919    2092    1920    1922
    1920    1924    1921    1922    1921    1923    1921    1928
    1922    1926    1923    1925    1923    2093    1924    1925
    1924    1948    1925    1949    1926    1927    1927    1928
    1927    1929    1928    1931    1929    1930    1929    2094
    1930    1932    1930    1933    1931    1932    1931    2095
    1932    1934    1933    2096    1934    1935    1935    1937
    1935    1939    1936    1937    1936    1938    1936    2097
    1937    2098    1938    1940    1938    1941    1939    1940
    1939    2099    1940    2100    1941    1943    1941    1945
    1942    1943    1942    1944    1942    1947    1943    2101
    1944    1946    1944    2102    1945    1946    1945    2103
    1946    2104    1947    2105    1948    2106    1949    1950
    1949    2107    1949    2108    1950    1952    1950    1954
    1951    1952    1951    1953    1951    2109    1951    2110
    1952    2111    1953    1954    1953    2112    1954    2113
    1955    1956    1955    2114    1955    2115    1956    1957
    1956    1959    1956    2116    1957    1958    1957    1962
    1957    2117    1958    2118    1958    2119    1959    1960
    1959    1963    1959    2120    1960    1961    1960    1964
    1960    2121    1961    1962    1961    2122    1961    2123
    1962    2124    1962    2125    1963    2126    1963    2127
    1964    1965    1964    2128    1964    2129    1965    1966
    1965    2130    1965    2131    1966    1968    1966    1970
    1967    1968    1967    1969    1967    1980    1968    2132
    1969    1971    1969    1972    1970    1971    1970    2133
    1971    1974    1972    1981    1972    1973    1973    1975
    1973    2134    1974    1975    1974    1978    1975    1976
    1976    1977    1976    1982    1977    1979    1977    1984
    1978    1979    1978    2135    1979    2136    1980    2025
    1981    2137    1981    2138    1981    2139    1982    1983
    1982    1986    1983    1985    1983    1988    1984    1985
    1984    2140    1985    2141    1986    1987    1986    2142
    1987    1990    1987    1989    1988    1989    1988    2143
    1989    2144    1990    1991    1990    2145    1990    2146
    1991    1992    1991    2147    1991    2148    1992    1993
    1992    2149    1992    2150    1993    1995    1993    1997
    1994    1995    1994    1996    1994    2001    1995    1999
    1996    1998    1996    2006    1997    1998    1997    2003
    1998    2004    1999    2000    1999    2151    2000    2002
    2000    2152    2001    2002    2001    2005    2002    2008
    2003    2153    2003    2154    2003    2155    2004    2156
    2004    2157    2004    2158    2005    2007    2005    2010
    2006    2007    2006    2024    2007    2159    2008    2009
    2008    2011    2009    2010    2009    2013    2010    2160
    2011    2012    2011    2161    2012    2014    2012    2018
    2013    2014    2013    2162    2014    2015    2015    2016
    2015    2019    2015    2163    2016    2017    2016    2022
    2016    2164    2017    2018    2017    2165    2017    2166
    2018    2167    2018    2168    2019    2169    2019    2170
    2019    2020    2020    2021    2020    2023    2020    2171
    2021    2022    2021    2172    2021    2173    2022    2174
    2022    2175    2023    2176    2024    2177    2025    2027
    2025    2029    2026    2033    2026    2027    2026    2028
    2027    2032    2028    2030    2028    2178    2029    2030
    2029    2179    2030    2180    2031    2033    2031    2181
    2031    2032    2032    2182    2032    2183    2033    2184
    2185    2187    2185    2189    2185    2398    2186    2187
    2186    2188    2186    2191    2187    2202    2188    2190
    2188    2193    2189    2190    2189    2399    2190    2200
    2191    2192    2191    2201    2192    2194    2192    2400
    2193    2194    2193    2197    2194    2195    2195    2196
    2195    2203    2196    2198    2196    2401    2197    2198
    2197    2199    2198    2220    2199    2200    2199    2221
    2200    2402    2201    2403    2202    2404    2203    2204
    2203    2405    2203    2406    2204    2206    2204    2208
    2205    2206    2205    2207    2205    2210    2206    2222
    2207    2209    2207    2212    2208    2209    2208    2407
    2209    2408    2210    2211    2210    2223    2211    2213
    2211    2219    2212    2214    2212    2213    2213    2217
    2214    2409    2214    2410    2214    2215    2215    2216
    2215    2327    2215    2411    2216    2217    2216    2218
    2217    2412    2217    2413    2219    2224    2220    2415
    2220    2414    2221    2416    2222    2417    2223    2418
    2223    2419    2223    2420    2224    2226    2224    2228
    2225    2226    2225    2227    2225    2230    2226    2421
    2227    2229    2227    2231    2228    2229    2228    2254
    2229    2232    2230    2422    2231    2234    2231    2236
    2232    2236    2233    2234    2233    2235    2233    2423
    2234    2424    2235    2237    2235    2238    2236    2237
    2237    2245    2238    2239    2239    2241    2239    2243
    2240    2242    2240    2241    2240    2425    2241    2244
    2242    2243    2242    2426    2242    2427    2243    2428
    2244    2429    2244    2430    2244    2431    2245    2246
    2245    2432    2245    2433    2246    2247    2246    2434
    2246    2435    2247    2249    2247    2251    2248    2249
    2248    2250    2248    2258    2249    2253    2250    2252
    2251    2252    2251    2436    2252    2257    2253    2437
    2253    2438    2253    2439    2254    2255    2254    2256
    2256    2440    2257    2276    2258    2259    2259    2260
    2259    2441    2259    2442    2260    2262    2260    2264
    2261    2262    2261    2263    2261    2266    2262    2275
    2263    2265    2263    2268    2264    2265    2264    2443
    2265    2444    2266    2267    2266    2445    2267    2268
    2267    2269    2268    2271    2269    2270    2269    2446
    2270    2272    2270    2273    2271    2272    2271    2274
    2272    2447    2273    2448    2274    2449    2274    2450
    2274    2451    2275    2452    2276    2278    2276    2280
    2277    2278    2277    2279    2277    2282    2278    2453
    2279    2281    2279    2322    2280    2281    2280    2454
    2281    2319    2282    2283    2283    2284    2283    2455
    2283    2456    2284    2286    2284    2288    2285    2286
    2285    2287    2285    2292    2286    2290    2287    2289
    2287    2457    2288    2289    2288    2312    2289    2313
    2290    2291    2291    2292    2291    2293    2292    2295
    2293    2294    2293    2458    2294    2296    2294    2297
    2295    2296    2295    2459    2296    2298    2297    2460
    2298    2299    2299    2301    2299    2303    2300    2301
    2300    2302    2300    2461    2301    2462    2302    2304
    2302    2305    2303    2304    2303    2463    2304    2464
    2305    2307    2305    2309    2306    2307    2306    2308
    2306    2311    2307    2465    2308    2310    2308    2466
    2309    2310    2309    2467    2310    2468    2311    2469
    2312    2470    2313    2314    2313    2471    2313    2472
    2314    2316    2314    2318    2315    2316    2315    2317
    2315    2473    2315    2474    2316    2475    2317    2318
    2317    2476    2318    2477    2319    2478    2319    2479
    2319    2320    2320    2321    2320    2323    2320    2480
    2321    2322    2321    2326    2321    2481    2322    2482
    2322    2483    2323    2324    2323    2327    2323    2484
    2324    2325    2324    2328    2324    2485    2325    2326
    2325    2486    2325    2487    2326    2488    2326    2489
    2327    2490    2327    2491    2328    2329    2328    2492
    2328    2493    2329    2330    2329    2494    2329    2495
    2330    2332    2330    2334    2331    2332    2331    2333
    2331    2344    2332    2496    2333    2335    2333    2336
    2334    2335    2334    2497    2335    2338    2336    2337
    2336    2345    2337    2339    2337    2498    2338    2339
    2338    2342    2339    2340    2340    2341    2340    2346
    2341    2343    2341    2348    2342    2343    2342    2499
    2343    2500    2344    2389    2345    2501    2345    2502
    2345    2503    2346    2347    2346    2350    2347    2349
    2347    2352    2348    2349    2348    2504    2349    2505
    2350    2351    2350    2506    2351    2354    2351    2353
    2352    2353    2352    2507    2353    2508    2354    2355
    2354    2509    2354    2510    2355    2356    2355    2511
    2355    2512    2356    2357    2356    2513    2356    2514
    2357    2359    2357    2361    2358    2359    2358    2360
    2358    2365    2359    2363    2360    2362    2360    2370
    2361    2367    2361    2362    2362    2368    2363    2364
    2363    2515    2364    2366    2364    2516    2365    2366
    2365    2369    2366    2372    2367    2517    2367    2518
    2367    2519    2368    2520    2368    2521    2368    2522
    2369    2371    2369    2374    2370    2371    2370    2388
    2371    2523    2372    2373    2372    2375    2373    2374
    2373    2377    2374    2524    2375    2376    2375    2525
    2376    2382    2376    2378    2377    2378    2377    2526
    2378    2379    2379    2380    2379    2383    2379    2527
    2380    2381    2380    2386    2380    2528    2381    2382
    2381    2529    2381    2530    2382    2531    2382    2532
    2383    2384    2383    2533    2383    2534    2384    2385
    2384    2387    2384    2535    2385    2386    2385    2536
    2385    2537    2386    2538    2386    2539    2387    2540
    2388    2541    2389    2391    2389    2393    2390    2391
    2390    2392    2390    2397    2391    2396    2392    2394
    2392    2542    2393    2394    2393    2543    2394    2544
    2395    2396    2395    2397    2395    2545    2396    2546
    2396    2547    2397    2548    2549    2551    2549    2553
    2549    2762    2550    2551    2550    2552    2550    2555
    2551    2566    2552    2554    2552    2557    2553    2554
    2553    2763    2554    2564    2555    2556    2555    2565
    2556    2558    2556    2764    2557    2558    2557    2561
    2558    2559    2559    2567    2559    2560    2560    2562
    2560    2765    2561    2562    2561    2563    2562    2584
    2563    2564    2563    2585    2564    2766    2565    2767
    2566    2768    2567    2568    2567    2769    2567    2770
    2568    2570    2568    2572    2569    2570    2569    2571
    2569    2574    2570    2586    2571    2573    2571    2576
    2572    2573    2572    2771    2573    2772    2574    2575
    2574    2587    2575    2577    2575    2583    2576    2578
    2576    2577    2577    2581    2578    2579    2578    2773
    2578    2774    2579    2580    2579    2691    2579    2775
    2580    2581    2580    2582    2581    2776    2581    2777
    2583    2588    2584    2778    2584    2779    2585    2780
    2586    2781    2587    2782    2587    2783    2587    2784
    2588    2590    2588    2592    2589    2590    2589    2591
    2589    2594    2590    2785    2591    2593    2591    2595
    2592    2593    2592    2618    2593    2596    2594    2786
    2595    2598    2595    2600    2596    2600    2597    2598
    2597    2599    2597    2787    2598    2788    2599    2601
    2599    2602    2600    2601    2601    2609    2602    2603
    2603    2605    2603    2607    2604    2605    2604    2789
    2604    2606    2605    2608    2606    2607    2606    2790
    2606    2791    2607    2792    2608    2793    2608    2794
    2608    2795    2609    2610    2609    2796    2609    2797
    2610    2611    2610    2798    2610    2799    2611    2613
    2611    2615    2612    2613    2612    2614    2612    2622
    2613    2617    2614    2616    2615    2616    2615    2800
    2616    2621    2617    2801    2617    2802    2617    2803
    2618    2619    2618    2620    2620    2804    2621    2640
    2622    2623    2623    2624    2623    2805    2623    2806
    2624    2626    2624    2628    2625    2626    2625    2627
    2625    2630    2626    2639    2627    2629    2627    2632
    2628    2629    2628    2807    2629    2808    2630    2631
    2630    2809    2631    2632    2631    2633    2632    2635
    2633    2634    2633    2810    2634    2636    2634    2637
    2635    2638    2635    2636    2636    2811    2637    2812
    2638    2813    2638    2814    2638    2815    2639    2816
    2640    2642    2640    2644    2641    2642    2641    2643
    2641    2646    2642    2817    2643    2686    2643    2645
    2644    2645    2644    2818    2645    2683    2646    2647
    2647    2648    2647    2819    2647    2820    2648    2650
    2648    2652    2649    2650    2649    2651    2649    2656
    2650    2654    2651    2653    2651    2821    2652    2653
    2652    2676    2653    2677    2654    2655    2655    2656
    2655    2657    2656    2659    2657    2658    2657    2822
    2658    2660    2658    2661    2659    2660    2659    2823
    2660    2662    2661    2824    2662    2663    2663    2665
    2663    2667    2664    2665    2664    2666    2664    2825
    2665    2826    2666    2668    2666    2669    2667    2668
    2667    2827    2668    2828    2669    2671    2669    2673
    2670    2671    2670    2672    2670    2675    2671    2829
    2672    2674    2672    2830    2673    2674    2673    2831
    2674    2832    2675    2833    2676    2834    2677    2678
    2677    2835    2677    2836    2678    2680    2678    2682
    2679    2680    2679    2681    2679    2837    2679    2838
    2680    2839    2681    2682    2681    2840    2682    2841
    2683    2842    2683    2843    2683    2684    2684    2685
    2684    2687    2684    2844    2685    2686    2685    2690
    2685    2845    2686    2846    2686    2847    2687    2688
    2687    2691    2687    2848    2688    2689    2688    2692
    2688    2849    2689    2690    2689    2850    2689    2851
    2690    2852    2690    2853    2691    2854    2691    2855
    2692    2693    2692    2856    2692    2857    2693    2694
    2693    2858    2693    2859    2694    2696    2694    2698
    2695    2696    2695    2697    2695    2708    2696    2860
    2697    2699    2697    2700    2698    2699    2698    2861
    2699    2702    2700    2701    2700    2709    2701    2703
    2701    2862    2702    2703    2702    2706    2703    2704
    2704    2705    2704    2710    2705    2707    2705    2712
    2706    2707    2706    2863    2707    2864    2708    2753
    2709    2865    2709    2866    2709    2867    2710    2711
    2710    2714    2711    2713    2711    2716    2712    2713
    2712    2868    2713    2869    2714    2715    2714    2870
    2715    2717    2715    2718    2716    2717    2716    2871
    2717    2872    2718    2719    2718    2873    2718    2874
    2719    2720    2719    2875    2719    2876    2720    2721
    2720    2877    2720    2878    2721    2723    2721    2725
    2722    2723    2722    2724    2722    2729    2723    2727
    2724    2726    2724    2734    2725    2731    2725    2726
    2726    2732    2727    2728    2727    2879    2728    2730
    2728    2880    2729    2730    2729    2733    2730    2736
    2731    2881    2731    2882    2731    2883    2732    2884
    2732    2885    2732    2886    2733    2735    2733    2738
    2734    2735    2734    2752    2735    2887    2736    2737
    2736    2739    2737    2738    2737    2741    2738    2888
    2739    2740    2739    2889    2740    2746    2740    2742
    2741    2742    2741    2890    2742    2743    2743    2744
    2743    2747    2743    2891    2744    2745    2744    2750
    2744    2892    2745    2746    2745    2893    2745    2894
    2746    2895    2746    2896    2747    2748    2747    2897
    2747    2898    2748    2749    2748    2751    2748    2899
    2749    2750    2749    2900    2749    2901    2750    2902
    2750    2903    2751    2904    2752    2905    2753    2755
    2753    2757    2754    2761    2754    2755    2754    2756
    2755    2760    2756    2758    2756    2906    2757    2758
    2757    2907    2758    2908    2759    2760    2759    2761
    2759    2909    2760    2910    2760    2911    2761    2912
    2913    2915    2913    2917    2913    3126    2914    2915
    2914    2916    2914    2919    2915    2930    2916    2918
    2916    2921    2917    2918    2917    3127    2918    2928
    2919    2920    2919    2929    2920    2922    2920    3128
    2921    2922    2921    2925    2922    2923    2923    2931
    2923    2924    2924    2926    2924    3129    2925    2926
    2925    2927    2926    2948    2927    2928    2927    2949
    2928    3130    2929    3131    2930    3132    2931    2932
    2931    3133    2931    3134    2932    2934    2932    2936
    2933    2934    2933    2935    2933    2938    2934    2950
    2935    2937    2935    2940    2936    2937    2936    3135
    2937    3136    2938    2951    2938    2939    2939    2941
    2939    2947    2940    2941    2940    2942    2941    2945
    2942    2943    2942    3137    2942    3138    2943    2944
    2943    3055    2943    3139    2944    2945    2944    2946
    2945    3140    2945    3141    2947    2952    2948    3142
    2948    3143    2949    3144    2950    3145    2951    3146
    2951    3147    2951    3148    2952    2954    2952    2956
    2953    2954    2953    2955    2953    2958    2954    3149
    2955    2957    2955    2959    2956    2982    2956    2957
    2957    2960    2958    3150    2959    2962    2959    2964
    2960    2964    2961    2962    2961    2963    2961    3151
    2962    3152    2963    2965    2963    2966    2964    2965
    2965    2973    2966    2967    2967    2969    2967    2971
    2968    2970    2968    2969    2968    3153    2969    2972
    2970    2971    2970    3154    2970    3155    2971    3156
    2972    3157    2972    3158    2972    3159    2973    2974
    2973    3160    2973    3161    2974    2975    2974    3162
    2974    3163    2975    2977    2975    2979    2976    2977
    2976    2978    2976    2986    2977    2981    2978    2980
    2979    2980    2979    3164    2980    2985    2981    3165
    2981    3166    2981    3167    2982    2983    2982    2984
    2984    3168    2985    3004    2986    2987    2987    2988
    2987    3169    2987    3170    2988    2990    2988    2992
    2989    2990    2989    2991    2989    2994    2990    3003
    2991    2993    2991    2996    2992    2993    2992    3171
    2993    3172    2994    3173    2994    2995    2995    2996
    2995    2997    2996    2999    2997    2998    2997    3174
    2998    3000    2998    3001    2999    3000    2999    3002
    3000    3175    3001    3176    3002    3177    3002    3178
    3002    3179    3003    3180    3004    3006    3004    3008
    3005    3006    3005    3007    3005    3010    3006    3181
    3007    3009    3007    3050    3008    3009    3008    3182
    3009    3047    3010    3011    3011    3012    3011    3183
    3011    3184    3012    3014    3012    3016    3013    3014
    3013    3015    3013    3020    3014    3018    3015    3017
    3015    3185    3016    3017    3016    3040    3017    3041
    3018    3019    3019    3020    3019    3021    3020    3023
    3021    3022    3021    3186    3022    3024    3022    3025
    3023    3024    3023    3187    3024    3026    3025    3188
    3026    3027    3027    3029    3027    3031    3028    3029
    3028    3030    3028    3189    3029    3190    3030    3032
    3030    3033    3031    3032    3031    3191    3032    3192
    3033    3035    3033    3037    3034    3035    3034    3036
    3034    3039    3035    3193    3036    3038    3036    3194
    3037    3038    3037    3195    3038    3196    3039    3197
    3040    3198    3041    3042    3041    3199    3041    3200
    3042    3044    3042    3046    3043    3044    3043    3045
    3043    3201    3043    3202    3044    3203    3045    3046
    3045    3204    3046    3205    3047    3206    3047    3207
    3047    3048    3048    3049    3048    3051    3048    3208
    3049    3050    3049    3054    3049    3209    3050    3210
    3050    3211    3051    3052    3051    3055    3051    3212
    3052    3053    3052    3056    3052    3213    3053    3054
    3053    3214    3053    3215    3054    3216    3054    3217
    3055    3218    3055    3219    3056    3057    3056    3220
    3056    3221    3057    3058    3057    3222    3057    3223
    3058    3060    3058    3062    3059    3060    3059    3061
    3059    3072    3060    3224    3061    3063    3061    3064
    3062    3063    3062    3225    3063    3066    3064    3065
    3064    3073    3065    3067    3065    3226    3066    3067
    3066    3070    3067    3068    3068    3069    3068    3074
    3069    3071    3069    3076    3070    3071    3070    3227
    3071    3228    3072    3117    3073    3229    3073    3230
    3073    3231    3074    3075    3074    3078    3075    3077
    3075    3080    3076    3077    3076    3232    3077    3233
    3078    3079    3078    3234    3079    3081    3079    3082
    3080    3081    3080    3235    3081    3236    3082    3083
    3082    3237    3082    3238    3083    3084    3083    3239
    3083    3240    3084    3085    3084    3241    3084    3242
    3085    3087    3085    3089    3086    3087    3086    3088
    3086    3093    3087    3091    3088    3090    3088    3098
    3089    3095    3089    3090    3090    3096    3091    3092
    3091    3243    3092    3094    3092    3244    3093    3094
    3093    3097    3094    3100    3095    3245    3095    3246
    3095    3247    3096    3248    3096    3249    3096    3250
    3097    3099    3097    3102    3098    3099    3098    3116
    3099    3251    3100    3101    3100    3103    3101    3102
    3101    3105    3102    3252    3103    3104    3103    3253
    3104    3110    3104    3106    3105    3106    3105    3254
    3106    3107    3107    3108    3107    3111    3107    3255
    3108    3109    3108    3114    3108    3256    3109    3110
    3109    3257    3109    3258    3110    3259    3110    3260
    3111    3112    3111    3261    3111    3262    3112    3113
    3112    3115    3112    3263    3113    3114    3113    3264
    3113    3265    3114    3266    3114    3267    3115    3268
    3116    3269    3117    3119    3117    3121    3118    3119
    3118    3120    3118    3125    3119    3124    3120    3122
    3120    3270    3121    3122    3121    3271    3122    3272
    3123    3124    3123    3125    3123    3273    3124    3274
    3124    3275    3125    3276    3277    3279    3277    3281
    3277    3490    3278    3279    3278    3280    3278    3283
    3279    3294    3280    3282    3280    3285    3281    3282
    3281    3491    3282    3292    3283    3284    3283    3293
    3284    3286    3284    3492    3285    3286    3285    3289
    3286    3287    3287    3295    3287    3288    3288    3290
    3288    3493    3289    3290    3289    3291    3290    3312
    3291    3292    3291    3313    3292    3494    3293    3495
    3294    3496    3295    3296    3295    3497    3295    3498
    3296    3298    3296    3300    3297    3298    3297    3299
    3297    3302    3298    3314    3299    3301    3299    3304
    3300    3301    3300    3499    3301    3500    3302    3315
    3302    3303    3303    3305    3303    3311    3304    3306
    3304    3305    3305    3309    3306    3307    3306    3501
    3306    3502    3307    3308    3307    3419    3307    3503
    3308    3310    3308    3309    3309    3504    3309    3505
    3311    3316    3312    3506    3312    3507    3313    3508
    3314    3509    3315    3510    3315    3511    3315    3512
    3316    3318    3316    3320    3317    3318    3317    3319
    3317    3322    3318    3513    3319    3321    3319    3323
    3320    3321    3320    3346    3321    3324    3322    3514
    3323    3326    3323    3328    3324    3328    3325    3326
    3325    3327    3325    3515    3326    3516    3327    3329
    3327    3330    3328    3329    3329    3337    3330    3331
    3331    3333    3331    3335    3332    3334    3332    3333
    3332    3517    3333    3336    3334    3335    3334    3518
    3334    3519    3335    3520    3336    3521    3336    3522
    3336    3523    3337    3338    3337    3524    3337    3525
    3338    3339    3338    3526    3338    3527    3339    3341
    3339    3343    3340    3341    3340    3342    3340    3350
    3341    3345    3342    3344    3343    3344    3343    3528
    3344    3349    3345    3529    3345    3530    3345    3531
    3346    3347    3346    3348    3348    3532    3349    3368
    3350    3351    3351    3352    3351    3533    3351    3534
    3352    3354    3352    3356    3353    3354    3353    3355
    3353    3358    3354    3367    3355    3357    3355    3360
    3356    3357    3356    3535    3357    3536    3358    3537
    3358    3359    3359    3360    3359    3361    3360    3363
    3361    3362    3361    3538    3362    3364    3362    3365
    3363    3364    3363    3366    3364    3539    3365    3540
    3366    3541    3366    3542    3366    3543    3367    3544
    3368    3370    3368    3372    3369    3370    3369    3371
    3369    3374    3370    3545    3371    3373    3371    3414
    3372    3373    3372    3546    3373    3411    3374    3375
    3375    3376    3375    3547    3375    3548    3376    3378
    3376    3380    3377    3378    3377    3379    3377    3384
    3378    3382    3379    3381    3379    3549    3380    3381
    3380    3404    3381    3405    3382    3383    3383    3384
    3383    3385    3384    3387    3385    3386    3385    3550
    3386    3388    3386    3389    3387    3388    3387    3551
    3388    3390    3389    3552    3390    3391    3391    3393
    3391    3395    3392    3393    3392    3394    3392    3553
    3393    3554    3394    3396    3394    3397    3395    3396
    3395    3555    3396    3556    3397    3399    3397    3401
    3398    3399    3398    3400    3398    3403    3399    3557
    3400    3402    3400    3558    3401    3402    3401    3559
    3402    3560    3403    3561    3404    3562    3405    3406
    3405    3563    3405    3564    3406    3408    3406    3410
    3407    3408    3407    3409    3407    3565    3407    3566
    3408    3567    3409    3410    3409    3568    3410    3569
    3411    3570    3411    3571    3411    3412    3412    3413
    3412    3415    3412    3572    3413    3414    3413    3418
    3413    3573    3414    3574    3414    3575    3415    3416
    3415    3419    3415    3576    3416    3417    3416    3420
    3416    3577    3417    3418    3417    3578    3417    3579
    3418    3580    3418    3581    3419    3582    3419    3583
    3420    3421    3420    3584    3420    3585    3421    3422
    3421    3586    3421    3587    3422    3424    3422    3426
    3423    3424    3423    3425    3423    3436    3424    3588
    3425    3427    3425    3428    3426    3427    3426    3589
    3427    3430    3428    3437    3428    3429    3429    3431
    3429    3590    3430    3431    3430    3434    3431    3432
    3432    3433    3432    3438    3433    3435    3433    3440
    3434    3435    3434    3591    3435    3592    3436    3481
    3437    3593    3437    3594    3437    3595    3438    3439
    3438    3442    3439    3441    3439    3444    3440    3441
    3440    3596    3441    3597    3442    3443    3442    3598
    3443    3446    3443    3445    3444    3445    3444    3599
    3445    3600    3446    3447    3446    3601    3446    3602
    3447    3448    3447    3603    3447    3604    3448    3449
    3448    3605    3448    3606    3449    3451    3449    3453
    3450    3451    3450    3452    3450    3457    3451    3455
    3452    3454    3452    3462    3453    3454    3453    3459
    3454    3460    3455    3456    3455    3607    3456    3458
    3456    3608    3457    3458    3457    3461    3458    3464
    3459    3609    3459    3610    3459    3611    3460    3612
    3460    3613    3460    3614    3461    3463    3461    3466
    3462    3463    3462    3480    3463    3615    3464    3465
    3464    3467    3465    3466    3465    3469    3466    3616
    3467    3468    3467    3617    3468    3474    3468    3470
    3469    3470    3469    3618    3470    3471    3471    3472
    3471    3475    3471    3619    3472    3473    3472    3478
    3472    3620    3473    3474    3473    3621    3473    3622
    3474    3623    3474    3624    3475    3625    3475    3626
    3475    3476    3476    3477    3476    3479    3476    3627
    3477    3478    3477    3628    3477    3629    3478    3630
    3478    3631    3479    3632    3480    3633    3481    3483
    3481    3485    3482    3483    3482    3484    3482    3489
    3483    3488    3484    3486    3484    3634    3485    3486
    3485    3635    3486    3636    3487    3488    3487    3489
    3487    3637    3488    3638    3488    3639    3489    3640

    7100 !NTHETA: angles
     445     444     623     440     444     445     440     444     623
     428     438     439     393     392     394     387     392     394
     387     392     393     438     439     621     438     439     440
     438     439     622     440     439     622     440     439     621
     621     439     622     442     440     444     439     440     442
     439     440     444     444     445     624     443     445     444
     443     445     624     408     434     436     435     434     436
     408     434     435    1578    1580    1582    1582    1580    1738
    1578    1580    1738     391     393     397     391     393     392
     392     393     397     441     443     445     445     443     448
     441     443     448    1579    1577    1581    1574    1577    1579
    1574    1577    1581     392     394     590     395     394     589
     392     394     589     589     394     590     392     394     395
     395     394     590     385     387     392     389     387     392
     385     387     389    1580    1578    1583    1579    1578    1583
    1579    1578    1580     429     428     438     429     428     430
     430     428     438    1582    1581    1739    1577    1581    1739
    1577    1581    1582     409     408     434     404     408     434
     404     408     409    1580    1582    1581    1580    1582    1740
    1581    1582    1740     441     442     455     440     442     455
     440     442     441     443     441     446     442     441     446
     442     441     443    1572    1574    1576    1572    1574    1577
    1576    1574    1577     461     460     634     456     460     461
     456     460     634     428     430     432     459     461     499
     460     461     499     459     461     460     387     389     588
     387     389     388     388     389     588    1577    1579    1737
    1578    1579    1737    1577    1579    1578     411     414     604
     411     414     413     413     414     604     417     415     418
     413     415     417     413     415     418     428     429     433
     427     429     433     427     429     428     421     419     423
     418     419     421     418     419     423     429     427     431
     426     427     429     426     427     431     618     433     619
     617     433     618     617     433     619     429     433     617
     429     433     619     429     433     618     437     456     458
     437     456     460     458     456     460    1240    1238    1242
    1237    1238    1240    1237    1238    1242     614     426     615
     425     426     615     427     426     615     425     426     614
     427     426     614     425     426     427     415     417     425
     415     417     416     416     417     425     411     416     417
     411     416     412     412     416     417    1252    1297    1299
    1252    1297    1301    1299    1297    1301    1402    1237    1403
    1236    1237    1238    1238    1237    1403    1236    1237    1403
    1238    1237    1402    1236    1237    1402     432     437     456
     426     425     612     426     425     613     417     425     613
     417     425     426     417     425     612     612     425     613
     415     418     419     408     409     412     407     409     408
     407     409     412     405     407     409     405     407     411
     409     407     411     409     412     416     427     431     432
     427     431     616     432     431     616     420     421     424
     419     421     420     419     421     424     407     411     414
     407     411     416     414     411     416     414     413     415
     414     413     603     415     413     603    1239    1240    1404
    1238    1240    1239    1238    1240    1404     430     432     437
     430     432     431     431     432     437    1249    1251    1408
    1250    1251    1408    1249    1251    1250    1244    1245    1406
    1247    1245    1406    1244    1245    1247    1245    1247    1246
    1246    1247    1248    1245    1247    1248    1247    1248    1254
    1247    1248    1249    1249    1248    1254    1241    1244    1245
    1245    1244    1253    1241    1244    1253    1251    1249    1256
    1248    1249    1256    1248    1249    1251    1247    1246    1250
    1243    1246    1250    1243    1246    1247    1241    1243    1246
    1242    1243    1246    1241    1243    1242    1239    1241    1244
    1243    1241    1244    1239    1241    1243    1246    1250    1407
    1246    1250    1251    1251    1250    1407    1243    1242    1405
    1238    1242    1405    1238    1242    1243     420     422     607
     423     422     606     606     422     607     423     422     607
     420     422     606     420     422     423     577     575     725
     576     575     725     576     575     577    1259    1258    1414
    1254    1258    1259    1254    1258    1414    1248    1254    1258
    1248    1254    1255    1255    1254    1258     571     576     575
     575     576     727     726     576     727     571     576     726
     575     576     726     571     576     727     419     423     608
     422     423     608     419     423     422    1410    1253    1411
    1409    1253    1410    1244    1253    1410    1409    1253    1411
    1244    1253    1409    1244    1253    1411    1240    1239    1252
    1240    1239    1241    1241    1239    1252    1249    1256    1412
    1249    1256    1257    1257    1256    1412     421     420     605
     421     420     422     422     420     605     570     577     575
     575     577     728     570     577     728    1302    1301    1451
    1297    1301    1451    1297    1301    1302    1239    1252    1297
    1259    1262    1417    1417    1262    1418    1259    1262    1418
    1263    1262    1417    1259    1262    1263    1263    1262    1418
    1255    1260    1415    1255    1260    1261    1261    1260    1415
     570     571     576     569     571     570     569     571     576
    1259    1261    1416    1260    1261    1416    1259    1261    1260
     448     451     452     448     451     454     452     451     454
     569     573     723     574     573     723     569     573     574
     446     447     449     448     447     449     446     447     448
    1574    1572    1733    1573    1572    1733    1573    1572    1574
    1254    1255    1260    1254    1255    1257    1257    1255    1260
     571     570     577     571     570     572     572     570     577
     389     388     587     384     388     587     384     388     389
     376     378     400     376     378     377     377     378     400
     451     454     631     451     454     630     451     454     629
     629     454     631     630     454     631     629     454     630
     570     572     722     570     572     574     574     572     722
     443     448     447     443     448     451     447     448     451
     378     400     594     378     400     595     594     400     595
     449     450     453     452     450     453     449     450     452
    1571    1575    1576    1576    1575    1735    1571    1575    1735
     573     574     724     572     574     724     572     574     573
     451     452     627     450     452     451     450     452     627
     524     569     571     524     569     573     571     569     573
    1574    1576    1575    1574    1576    1736    1575    1576    1736
    1261    1259    1262    1258    1259    1262    1258    1259    1261
    1256    1257    1413    1255    1257    1256    1255    1257    1413
     379     401     596     466     465     467     467     465     472
     466     465     472     464     466     470     464     466     465
     465     466     470     471     472     475     465     472     471
     465     472     475     465     467     469     465     467     637
     469     467     637     472     471     473     470     471     472
     470     471     473     474     473     638     471     473     474
     471     473     638     466     470     471     466     464     468
     463     464     466     463     464     468     462     463     636
     462     463     464     462     463     635     635     463     636
     464     463     636     464     463     635     476     474     477
     473     474     477     473     474     476     472     475     476
     472     475     639     476     475     639     474     476     478
     475     476     478     474     476     475     457     462     463
    3394    3396    3395    3395    3396    3556    3394    3396    3556
    1202    1204    1206    1203    1204    1206    1202    1204    1203
    3397    3399    3398    3398    3399    3557    3397    3399    3557
    1204    1206    1207    3391    3395    3555    3396    3395    3555
    3391    3395    3396    3399    3397    3401    3394    3397    3399
    3394    3397    3401    1199    1201    1202    1202    1201    1366
    1199    1201    1366    1201    1202    1205    1204    1202    1205
    1201    1202    1204    3392    3394    3397    3396    3394    3397
    3392    3394    3396     476     478     479     442     455     632
     464     468     492     469     468     492     464     468     469
     458     457     462     459     457     462     458     457     459
    1206    1207    1209    1206    1207    1211    1209    1207    1211
     447     446     625     441     446     447     441     446     625
    3390    3391    3395    3390    3391    3393    3393    3391    3395
     457     459     502     457     459     461     461     459     502
    1198    1199    1200    1198    1199    1201    1200    1199    1201
    1212    1211    1371    1207    1211    1212    1207    1211    1371
    1202    1205    1368     467     469     493     468     469     493
     467     469     468     481     479     483     478     479     481
     478     479     483    3394    3392    3553    3393    3392    3394
    3393    3392    3553    3392    3393    3554    3391    3393    3392
    3391    3393    3554     500     501     502     500     501     506
     502     501     506     500     501     661     506     501     661
     502     501     661     494     498     497     494     498     657
     497     498     657    3402    3400    3558    3398    3400    3402
    3398    3400    3558     457     458     633     456     458     457
     456     458     633     493     494     496     493     494     498
     496     494     498    1228    1229    1230    1234    1229    1389
    1230    1229    1234    1228    1229    1234    1230    1229    1389
    1228    1229    1389     496     495     497     496     495     653
     496     495     654     653     495     654     497     495     653
     497     495     654    1189    1187    1230    1185    1187    1189
    1185    1187    1230    3399    3398    3400    3400    3398    3403
    3399    3398    3403     495     497     498     495     497     656
     498     497     656    1236    1232    1393    1233    1232    1393
    1231    1232    1236    1233    1232    1236    1231    1232    1233
    1231    1232    1393     468     492     650    1400    1236    1401
    1232    1236    1237    1232    1236    1401    1232    1236    1400
    1237    1236    1401    1237    1236    1400    1187    1230    1390
    1229    1230    1390    1390    1230    1391    1187    1230    1229
    1187    1230    1391    1229    1230    1391     469     493     494
     651     493     652     494     493     652     494     493     651
     469     493     652     469     493     651    3398    3403    3561
    1187    1189    1188    1188    1189    1227    1187    1189    1227
    1227    1228    1388    1229    1228    1388    1227    1228    1231
    1227    1228    1229    1231    1228    1388    1229    1228    1231
     494     496     655     495     496     655     494     496     495
    1189    1227    1387    1386    1227    1387    1228    1227    1386
    1189    1227    1228    1189    1227    1386    1228    1227    1387
    1235    1231    1392    1228    1231    1392    1232    1231    1235
    1228    1231    1232    1232    1231    1392    1228    1231    1235
    1232    1233    1234    1234    1233    1395    1232    1233    1395
    1234    1233    1394    1232    1233    1394    1394    1233    1395
    1229    1234    1397    1233    1234    1397    1229    1234    1233
    1229    1234    1396    1233    1234    1396    1396    1234    1397
    1120    1121    1125    1119    1121    1125    1119    1121    1120
    1134    1133    1135    1135    1133    1138    1134    1133    1138
    1132    1134    1329    1132    1134    1133    1133    1134    1329
    1124    1125    1320    1121    1125    1321    1320    1125    1321
    1121    1125    1320    1121    1125    1124    1124    1125    1321
    1136    1137    1140    1135    1137    1136    1135    1137    1140
    1134    1132    1136    1127    1132    1134    1127    1132    1136
    1132    1136    1162    1132    1136    1137    1137    1136    1162
    1119    1127    1132    1118    1119    1127    1121    1119    1127
    1118    1119    1121    1115    1120    1122    1121    1120    1122
    1115    1120    1121    1113    1118    1131    1119    1118    1131
    1113    1118    1119    1123    1124    1126    1125    1124    1126
    1123    1124    1125    1133    1138    1330    1117    1115    1120
    1113    1115    1117    1113    1115    1120    1114    1113    1115
    1115    1113    1118    1114    1113    1118    1137    1135    1139
    1133    1135    1137    1133    1135    1139    1118    1131    1326
    1118    1131    1328    1327    1131    1328    1326    1131    1327
    1118    1131    1327    1326    1131    1328    1123    1122    1318
    1120    1122    1318    1123    1122    1317    1317    1122    1318
    1120    1122    1317    1120    1122    1123    1124    1123    1235
    1122    1123    1124    1124    1123    1319    1122    1123    1319
    1235    1123    1319    1122    1123    1235     922     921    1070
     917     921    1070     917     921     922    1136    1162    1164
    1136    1162    1163    1163    1162    1164    1123    1235    1399
    1231    1235    1398    1231    1235    1399    1123    1235    1231
    1398    1235    1399    1123    1235    1398    1116    1117    1316
    1115    1117    1316    1115    1117    1116     918     917     921
     916     917     921     916     917     918    1137    1140    1144
     913     918     917     917     918    1068     913     918    1068
    1274    1273    1277    1266    1273    1277    1266    1273    1274
     916     919     920     920     919    1069     916     919    1069
    1262    1263    1419    1419    1263    1420    1262    1263    1264
    1264    1263    1419    1264    1263    1420    1262    1263    1420
    1429    1276    1430    1270    1276    1429    1428    1276    1429
    1428    1276    1430    1270    1276    1428    1270    1276    1430
    1268    1278    1279    1279    1278    1296    1268    1278    1296
    1278    1296    1449    1267    1265    1269    1264    1265    1267
    1264    1265    1269     910     908    1060     907     908     910
     907     908    1060     910     916     917     910     916     919
     917     916     919     447     449     450     447     449     626
     450     449     626    1162    1164    1348    1273    1277    1279
    1279    1277    1282    1273    1277    1282     474     477     640
    1269    1275    1427    1425    1275    1427    1269    1275    1426
    1426    1275    1427    1425    1275    1426    1269    1275    1425
    1270    1269    1275    1265    1269    1275    1265    1269    1270
    1267    1266    1273    1267    1266    1268    1268    1266    1273
    3386    3389    3552    1277    1279    1278    1278    1279    1431
    1277    1279    1431    1270    1268    1278    1266    1268    1270
    1266    1268    1278    1269    1270    1276    1268    1270    1276
    1268    1270    1269    1265    1264    1422    1263    1264    1421
    1263    1264    1422    1421    1264    1422    1263    1264    1265
    1265    1264    1421     450     453     628     881     883     882
     881     883     884     882     883     884     880     881    1042
     883     881    1042     880     881     883     890     894     895
     895     894    1050     890     894    1050     891     890     894
     884     890     894     884     890     891     894     895     898
     897     895     898     894     895     897     896     897    1052
     895     897    1052     895     897     896     897     896    1051
     891     896     897     891     896    1051     885     884     890
     883     884     890     883     884     885     890     891     896
     890     891     893     893     891     896     883     882     886
     879     882     886     879     882     883     899     898    1053
    1053     898    1054     895     898    1054     899     898    1054
     895     898    1053     895     898     899     877     880     889
     877     880     881     881     880     889     884     885     887
     887     885     892     884     885     892     892     893    1049
     891     893     892     891     893    1049     878     879     882
     877     879     878     877     879     882     879     877     880
     875     877     880     875     877     879     887     886    1043
     882     886     887     882     886    1043    1045     889    1046
    1045     889    1047     880     889    1047     880     889    1046
    1046     889    1047     880     889    1045     874     878     879
     879     878    1041     874     878    1041     885     892    1048
     893     892    1048     885     892     893     479     483     484
     484     483     643     479     483     643    1906    1909    2084
    3420    3421    3422    3586    3421    3587    3420    3421    3586
    3422    3421    3586    3420    3421    3587    3422    3421    3587
    2609    2610    2798    2611    2610    2798    2609    2610    2611
    2798    2610    2799    2609    2610    2799    2611    2610    2799
    2610    2609    2797    2610    2609    2796    2796    2609    2797
    2601    2609    2797    2601    2609    2610    2601    2609    2796
     885     887     886     886     887    1044     885     887    1044
    2603    2607    2792    2606    2607    2792    2603    2607    2606
     940     939     941     940     939    1089     941     939    1089
     934     935     940     933     935     934     933     935     940
    2605    2604    2606    2606    2604    2789    2605    2604    2789
    2603    2605    2604    2603    2605    2608    2604    2605    2608
     934     941     939     939     941    1092     934     941    1092
    2598    2597    2599    2598    2597    2787    2599    2597    2787
    2595    2598    2597    2597    2598    2788    2595    2598    2788
    1090     940    1091     935     940    1090     939     940    1091
     935     940     939     939     940    1090     935     940    1091
    2600    2601    2609    2599    2601    2609    2599    2601    2600
    2589    2594    2786    2605    2608    2794    2793    2608    2794
    2793    2608    2795    2605    2608    2793    2794    2608    2795
    2605    2608    2795    2610    2611    2613    2610    2611    2615
    2613    2611    2615    2599    2602    2603     935     933     937
     888     933     935     888     933     937    2589    2591    2593
    2589    2591    2595    2593    2591    2595    2601    2599    2602
    2597    2599    2601    2597    2599    2602    1170    1183    1360
     877     875     888     876     875     888     876     875     877
    2602    2603    2605    2602    2603    2607    2605    2603    2607
     935     934     936     936     934     941     935     934     941
    2591    2595    2598    2598    2595    2600    2591    2595    2600
     873     874     876     873     874     878     876     874     878
     875     888     933     874     876     875     874     876    1040
     875     876    1040    2595    2600    2601    2595    2600    2596
    2596    2600    2601    2611    2615    2616    2611    2615    2800
    2616    2615    2800     741     743     765     744     743     765
     741     743     744    1172    1173    1352    1171    1173    1172
    1171    1173    1352    1167    1168    1170    1167    1168    1172
    1170    1168    1172      87      88     263      86      88      87
      86      88     263    1173    1171    1176    1169    1171    1176
    1169    1171    1173     743     765     960    1173    1172    1351
    1168    1172    1173    1168    1172    1351    1349    1167    1350
    1168    1167    1350    1168    1167    1349    1166    1167    1168
    1166    1167    1350    1166    1167    1349    1175    1176    1179
    1171    1176    1175    1171    1176    1179    1156    1166    1167
      84      87      88      84      87      90      88      87      90
      88      86      89      85      86      89      85      86      88
      86      89     264    1168    1170    1169    1169    1170    1183
    1168    1170    1183     737     741     742     742     741     743
     737     741     743    1176    1179    1180    1176    1179    1182
    1180    1179    1182    1171    1169    1174    1170    1169    1174
    1170    1169    1171     742     764     958     742     764     959
     958     764     959     740     742     741     741     742     764
     740     742     764     913     915     914     913     915    1067
     914     915    1067      83      85      86      83      85     262
      86      85     262     732     734     733     733     734     744
     732     734     744    1176    1175    1177    1174    1175    1177
    1174    1175    1176     265      90     267     265      90     266
      87      90     267     266      90     267      87      90     266
      87      90     265    1357    1182    1359    1357    1182    1358
    1179    1182    1357    1179    1182    1359    1358    1182    1359
    1179    1182    1358     734     744     946     743     744     946
     734     744     743     914     932    1085     732     737     738
     732     737     741     738     737     741    1178    1177    1354
    1175    1177    1178    1175    1177    1354    1169    1174    1353
    1175    1174    1353    1169    1174    1175     909     910     916
     908     910     916     908     910     909    1277    1282    1281
    1277    1282    1432    1281    1282    1432    2671    2670    2675
    2672    2670    2675    2671    2670    2672    3306    3307    3419
    3308    3307    3503    3308    3307    3419    3306    3307    3308
    3306    3307    3503    3419    3307    3503     899     900     901
    1057     900    1058     899     900    1057     901     900    1058
     899     900    1058     901     900    1057    3578    3417    3579
    3416    3417    3418    3416    3417    3578    3418    3417    3578
    3416    3417    3579    3418    3417    3579    3307    3419    3415
    3582    3419    3583    3307    3419    3582    3415    3419    3583
    3307    3419    3583    3415    3419    3582     910     909     913
     902     909     913     902     909     910    2670    2675    2833
     904     906     912     904     906     905     905     906     912
    3421    3420    3584    3584    3420    3585    3416    3420    3421
    3416    3420    3585    3416    3420    3584    3421    3420    3585
    1055     899    1056     898     899     900     898     899    1055
     898     899    1056     900     899    1056     900     899    1055
     903     902     909     903     902     904     904     902     909
     902     904     914     902     904     906     906     904     914
    3307    3308    3309    3307    3308    3310    3309    3308    3310
    3416    3415    3576    3412    3415    3416    3419    3415    3576
    3412    3415    3576    3416    3415    3419    3412    3415    3419
     904     914     932     915     914     932     904     914     915
    3420    3416    3577    3417    3416    3577    3415    3416    3420
    3417    3416    3420    3415    3416    3417    3415    3416    3577
     906     905     911     901     905     911     901     905     906
     909     913     915     915     913     918     909     913     918
    1064     912    1065     906     912    1064     906     912    1066
    1064     912    1066    1065     912    1066     906     912    1065
     900     901     903     900     901     905     903     901     905
     902     903     907     901     903     907     901     903     902
    1062     911    1063     905     911    1061     905     911    1063
     905     911    1062    1061     911    1062    1061     911    1063
     908     907    1059     903     907    1059     903     907     908
    3431    3429    3590    3428    3429    3590    3428    3429    3431
    3428    3437    3593    3428    3437    3595    3593    3437    3595
    3594    3437    3595    3593    3437    3594    3428    3437    3594
    3425    3428    3437    3429    3428    3437    3425    3428    3429
    3423    3425    3427    3427    3425    3428    3423    3425    3428
    3425    3427    3430    3426    3427    3430    3425    3427    3426
    3429    3431    3430    3429    3431    3432    3430    3431    3432
    3427    3430    3431    3427    3430    3434    3431    3430    3434
    3443    3442    3598    3438    3442    3598    3438    3442    3443
      11      12     217      11      12      14      14      12     217
    3432    3438    3442    3432    3438    3439    3439    3438    3442
    3431    3432    3438    3431    3432    3433    3433    3432    3438
      13      14      36      12      14      36      12      14      13
    3424    3423    3436    3424    3423    3425    3425    3423    3436
    3427    3426    3589    3422    3426    3589    3422    3426    3427
     230      36     231      14      36     230      14      36     231
    2802    2617    2803    2801    2617    2803    2613    2617    2801
    2613    2617    2803    2801    2617    2802    2613    2617    2802
    3438    3439    3441    3438    3439    3444    3441    3439    3444
    3423    3436    3481     563     564     567     567     564     715
     563     564     565     565     564     567     563     564     715
     565     564     715       9      13      14      14      13      15
       9      13      15    3422    3424    3423    3423    3424    3588
    3422    3424    3588     564     567     720      10      11      19
      12      11      19      10      11      12     713     563     714
     559     563     714     559     563     713     564     563     714
     564     563     713     559     563     564       4       9      13
       4       9      10      10       9      13    3424    3422    3426
    3421    3422    3424    3421    3422    3426    2612    2614    2616
    3444    3445    3600    3443    3445    3444    3443    3445    3600
    2593    2596    2600    2640    2644    2645    2645    2644    2818
    2640    2644    2818    3439    3444    3599    3439    3444    3445
    3445    3444    3599    2684    2683    2843    2645    2683    2843
    2684    2683    2842    2645    2683    2842    2842    2683    2843
    2645    2683    2684     154     158     159     159     158     315
     154     158     315    2626    2625    2630    2626    2625    2627
    2627    2625    2630    2612    2622    2623     157     159     316
     157     159     158     158     159     316    2591    2589    2594
    2590    2589    2594    2590    2589    2591    2574    2575    2583
    2577    2575    2583    2574    2575    2577    2578    2579    2775
    2580    2579    2775    2691    2579    2775    2580    2579    2691
    2578    2579    2580    2578    2579    2691    2625    2626    2639
    2624    2626    2639    2624    2626    2625    2579    2578    2773
    2576    2578    2774    2576    2578    2773    2579    2578    2774
    2576    2578    2579    2773    2578    2774    2588    2592    2593
    2593    2592    2618    2588    2592    2618    2588    2590    2785
    2588    2590    2589    2589    2590    2785    2580    2581    2776
    2577    2581    2776    2577    2581    2777    2776    2581    2777
    2580    2581    2777    2577    2581    2580    2618    2620    2804
    2643    2645    2644    2643    2645    2683    2644    2645    2683
    2626    2624    2628    2623    2624    2626    2623    2624    2628
    2592    2593    2596    2591    2593    2592    2591    2593    2596
    2628    2629    2808    2627    2629    2628    2627    2629    2808
    2577    2576    2578    2571    2576    2577    2571    2576    2578
    2579    2580    2581    2579    2580    2582    2581    2580    2582
    2590    2588    2592    2583    2588    2590    2583    2588    2592
    2576    2577    2581    2575    2577    2581    2575    2577    2576
    2612    2613    2617    2611    2613    2612    2611    2613    2617
    2629    2628    2807    2624    2628    2629    2624    2628    2807
    2575    2583    2588    2592    2618    2619    2592    2618    2620
    2619    2618    2620    2613    2612    2614    2613    2612    2622
    2614    2612    2622    2624    2623    2805    2805    2623    2806
    2622    2623    2624    2622    2623    2806    2622    2623    2805
    2624    2623    2806    2690    2689    2850    2688    2689    2690
    2690    2689    2851    2688    2689    2851    2850    2689    2851
    2688    2689    2850    2687    2688    2849    2692    2688    2849
    2687    2688    2692    2689    2688    2692    2687    2688    2689
    2689    2688    2849    2856    2692    2857    2688    2692    2693
    2688    2692    2857    2693    2692    2856    2688    2692    2856
    2693    2692    2857    2693    2694    2696    2693    2694    2698
    2696    2694    2698    2689    2690    2852    2685    2690    2852
    2689    2690    2853    2685    2690    2689    2852    2690    2853
    2685    2690    2853    2686    2685    2845    2684    2685    2686
    2684    2685    2690    2686    2685    2690    2690    2685    2845
    2684    2685    2845    2684    2687    2691    2688    2687    2691
    2684    2687    2688    2688    2687    2848    2691    2687    2848
    2684    2687    2848    2699    2698    2861    2694    2698    2699
    2694    2698    2861    2694    2693    2859    2694    2693    2858
    2692    2693    2694    2692    2693    2859    2858    2693    2859
    2692    2693    2858    2685    2684    2844    2683    2684    2844
    2683    2684    2685    2683    2684    2687    2685    2684    2687
    2687    2684    2844    2698    2699    2702    2697    2699    2698
    2697    2699    2702    2695    2696    2860    2694    2696    2695
    2694    2696    2860    2695    2697    2699    2699    2697    2700
    2695    2697    2700    2579    2691    2687    2854    2691    2855
    2687    2691    2854    2579    2691    2855    2579    2691    2854
    2687    2691    2855    2679    2681    2682    2679    2681    2840
    2682    2681    2840    2696    2695    2708    2696    2695    2697
    2697    2695    2708    2755    2760    2911    2910    2760    2911
    2755    2760    2759    2759    2760    2911    2755    2760    2910
    2759    2760    2910    2681    2682    2841    2678    2682    2681
    2678    2682    2841    2754    2761    2759    2759    2761    2912
    2754    2761    2912    3303    3311    3316    2761    2759    2909
    2760    2759    2909    2760    2759    2761     739     740     945
     739     740     742     742     740     945    2755    2754    2756
    2756    2754    2761    2755    2754    2761    3302    3315    3510
    3302    3315    3512    3511    3315    3512    3510    3315    3511
    3302    3315    3511    3510    3315    3512    3481    3485    3635
    3481    3485    3486    3486    3485    3635    3484    3486    3485
    3484    3486    3636    3485    3486    3636    3302    3303    3311
    3305    3303    3311    3302    3303    3305    3305    3309    3505
    3308    3309    3505    3504    3309    3505    3305    3309    3504
    3305    3309    3308    3308    3309    3504    3298    3297    3302
    3298    3297    3299    3299    3297    3302    3296    3300    3301
    3301    3300    3499    3296    3300    3499    3483    3482    3484
    3484    3482    3489    3483    3482    3489    2708    2753    2755
    2708    2753    2757    2755    2753    2757    3300    3301    3500
    3299    3301    3500    3299    3301    3300    3436    3481    3483
    3436    3481    3485    3483    3481    3485    2695    2708    2753
    2754    2756    2906    2758    2756    2906    2754    2756    2758
    3304    3305    3309    3303    3305    3309    3303    3305    3304
    2753    2755    2754    2753    2755    2760    2754    2755    2760
    2756    2758    2757    2757    2758    2908    2756    2758    2908
    3482    3483    3488    3481    3483    3482    3481    3483    3488
    2753    2757    2907    2758    2757    2907    2753    2757    2758
    3307    3306    3502    3304    3306    3502    3307    3306    3501
    3304    3306    3501    3304    3306    3307    3501    3306    3502
    3482    3484    3634    3486    3484    3634    3482    3484    3486
    3301    3299    3304    3297    3299    3301    3297    3299    3304
    3299    3304    3305    3305    3304    3306    3299    3304    3306
    3303    3302    3315    3297    3302    3315    3297    3302    3303
     553     557     706     553     557     558     558     557     706
     598     403     600     390     403     598     390     403     600
     599     403     600     390     403     599     598     403     599
    3449    3448    3605    3447    3448    3606    3449    3448    3606
    3447    3448    3605    3605    3448    3606    3447    3448    3449
    3446    3447    3448    3448    3447    3604    3603    3447    3604
    3448    3447    3603    3446    3447    3604    3446    3447    3603
    3447    3446    3602    3443    3446    3601    3601    3446    3602
    3443    3446    3602    3447    3446    3601    3443    3446    3447
     386     402     597      15      16     218       6      16     218
       6      16      15     718     566     719     560     566     565
     565     566     718     560     566     718     565     566     719
     560     566     719     564     565     716     566     565     716
     716     565     717     566     565     717     564     565     566
     564     565     717     391     399     404     385     390     403
     391     390     403     385     390     391      15      37     232
      13      15      16      16      15      37      13      15      37
     560     561     709     560     561     710     562     561     710
     560     561     562     562     561     709     709     561     710
    3448    3449    3451    3448    3449    3453    3451    3449    3453
     399     404     406     399     404     408     406     404     408
     385     386     402     384     386     402     384     386     385
     559     560     566     561     560     566     559     560     561
     566     560     708     559     560     708     561     560     708
     383     384     388     386     384     388     383     384     386
     387     385     390     386     385     390     386     385     387
     390     391     399     393     391     399     390     391     393
    3449    3453    3454    3454    3453    3459    3449    3453    3459
    3453    3459    3610    3453    3459    3609    3609    3459    3611
    3453    3459    3611    3610    3459    3611    3609    3459    3610
       5       6      16       4       6      16       4       6       5
     558     559     560     560     559     563     563     559     707
     560     559     707     558     559     707     558     559     563
     556     562     712     711     562     712     561     562     712
     556     562     561     561     562     711     556     562     711
    3445    3443    3446    3442    3443    3446    3442    3443    3445
       1       5     215       1       5       6       6       5     215
       6       4       9       2       4       9       2       4       6
     434     436     620     404     406     601     404     406     405
     405     406     601     162     166     167     167     166     322
     162     166     322    2627    2632    2631    2627    2632    2635
    2631    2632    2635    2633    2634    2637    2633    2634    2636
    2636    2634    2637     155     156     157     155     156     162
     157     156     162     407     405     410     406     405     410
     406     405     407     152     153     314     155     153     314
     152     153     155    2631    2633    2634    2631    2633    2810
    2634    2633    2810    2635    2638    2813    2635    2638    2815
    2813    2638    2815    2635    2638    2814    2814    2638    2815
    2813    2638    2814    2634    2636    2635    2634    2636    2811
    2635    2636    2811     154     155     156     153     155     154
     153     155     156     610     424     611     609     424     610
     609     424     611     421     424     609     421     424     611
     421     424     610    2630    2631    2633    2632    2631    2633
    2630    2631    2632     156     157     159     159     157     164
     156     157     164    2634    2637    2812    2636    2635    2638
    2632    2635    2636    2632    2635    2638    2625    2630    2631
    2625    2630    2809    2631    2630    2809    2625    2627    2632
    2629    2627    2632    2625    2627    2629    3451    3455    3607
    3456    3455    3607    3451    3455    3456     163     162     166
     156     162     166     156     162     163    2704    2710    2714
    2704    2710    2711    2711    2710    2714    2703    2704    2710
    2703    2704    2705    2705    2704    2710    2710    2711    2716
    2710    2711    2713    2713    2711    2716    2711    2716    2871
    2717    2716    2871    2711    2716    2717    2701    2703    2702
    2701    2703    2704    2702    2703    2704    2715    2714    2870
    2710    2714    2870    2710    2714    2715    2715    2717    2872
    2716    2717    2872    2715    2717    2716    2714    2715    2717
    2717    2715    2718    2714    2715    2718    2711    2713    2712
    2712    2713    2869    2711    2713    2869    2704    2705    2712
    2704    2705    2707    2707    2705    2712    2705    2712    2713
    2713    2712    2868    2705    2712    2868    2705    2707    2706
    2706    2707    2864    2705    2707    2864    2700    2701    2703
    2700    2701    2862    2703    2701    2862     170     171     328
     327     171     328     170     171     172     172     171     328
     172     171     327     170     171     327    2715    2718    2874
    2873    2718    2874    2715    2718    2719    2719    2718    2873
    2719    2718    2874    2715    2718    2873     167     169     168
     168     169     324     167     169     324     169     168     323
     163     168     323     163     168     169     166     167     170
     166     167     169     169     167     170     163     165     321
     164     165     321     163     165     164     157     164     165
     165     164     320     157     164     320     171     170     326
     167     170     171     171     170     325     167     170     326
     325     170     326     167     170     325    2680    2679    2838
    2680    2679    2837    2681    2679    2837    2837    2679    2838
    2681    2679    2838    2680    2679    2681     162     163     165
     165     163     168     162     163     168    2699    2702    2706
    2703    2702    2706    2699    2702    2703    2702    2706    2863
    2707    2706    2863    2702    2706    2707     556     555     705
     552     555     705     552     555     556     373     374     375
     372     374     373     372     374     375     374     375     383
     374     375     376     376     375     383     365     369     579
     365     369     370     370     369     579     384     383     586
     375     383     586     585     383     586     384     383     585
     375     383     585     375     383     384     373     377     379
     378     377     379     373     377     378    2697    2700    2701
    2701    2700    2709    2697    2700    2709    2865    2709    2866
    2700    2709    2865    2700    2709    2867    2866    2709    2867
    2865    2709    2867    2700    2709    2866     367     382     584
     366     368     373     370     368     373     366     368     370
     377     379     401     380     379     401     377     379     380
     367     365     578     369     365     578     367     365     369
     366     371     381     366     371     372     372     371     381
     374     373     377     368     373     377     368     373     374
    2719    2720    2878    2721    2720    2878    2719    2720    2877
    2721    2720    2877    2877    2720    2878    2719    2720    2721
     555     556     558     558     556     562     555     556     562
     370     380     379     379     380     582     370     380     582
     366     367     382     365     367     382     365     367     366
    2718    2719    2875    2720    2719    2875    2718    2719    2720
    2720    2719    2876    2875    2719    2876    2718    2719    2876
     378     376     581     375     376     581     375     376     378
     371     381     583     371     372     580     371     372     374
     374     372     580     367     366     371     367     366     368
     368     366     371    2882    2731    2883    2725    2731    2882
    2725    2731    2881    2725    2731    2883    2881    2731    2882
    2881    2731    2883     557     558     559     556     558     557
     556     558     559     368     370     380     368     370     369
     369     370     380    2002    2001    2005    1994    2001    2002
    1994    2001    2005    1998    1996    2006    1994    1996    2006
    1994    1996    1998    1995    1994    1996    1996    1994    2001
    1995    1994    2001    1993    1995    1999    1993    1995    1994
    1994    1995    1999    1993    1997    2003    1993    1997    1998
    1998    1997    2003    1992    1993    1995    1992    1993    1997
    1995    1993    1997    2000    1999    2151    1995    1999    2151
    1995    1999    2000    1999    2000    2152    1999    2000    2002
    2002    2000    2152    2005    2007    2159    2006    2007    2159
    2005    2007    2006    1993    1992    2150    1993    1992    2149
    1991    1992    1993    2149    1992    2150    1991    1992    2150
    1991    1992    2149    1997    1998    2004    1996    1998    2004
    1996    1998    1997    2000    2002    2008    2000    2002    2001
    2001    2002    2008    2001    2005    2010    2007    2005    2010
    2001    2005    2007    3461    3463    3462    3462    3463    3615
    3461    3463    3615    3457    3461    3463    3463    3461    3466
    3457    3461    3466    2007    2006    2024    1996    2006    2007
    1996    2006    2024    3452    3462    3463    3463    3462    3480
    3452    3462    3480    2008    2009    2010    2010    2009    2013
    2008    2009    2013    1587    1588    1747    1586    1588    1587
    1586    1588    1747    2005    2010    2009    2005    2010    2160
    2009    2010    2160    2008    2011    2012    2012    2011    2161
    2008    2011    2161    3462    3480    3633    2009    2008    2011
    2002    2008    2009    2002    2008    2011    3461    3466    3465
    3461    3466    3616    3465    3466    3616    2328    2329    2330
    2330    2329    2495    2330    2329    2494    2328    2329    2495
    2494    2329    2495    2328    2329    2494    1992    1991    2148
    2147    1991    2148    1990    1991    1992    1990    1991    2148
    1990    1991    2147    1992    1991    2147    1578    1583    1741
    1987    1990    2146    2145    1990    2146    1987    1990    2145
    1987    1990    1991    1991    1990    2146    1991    1990    2145
    1589    1587    1746    1588    1587    1746    1589    1587    1745
    1745    1587    1746    1588    1587    1745    1588    1587    1589
    2941    2939    2947    2938    2939    2947    2938    2939    2941
    2329    2330    2332    2332    2330    2334    2329    2330    2334
    3464    3467    3617    3468    3467    3617    3464    3467    3468
    3458    3464    3467    3465    3464    3467    3458    3464    3465
    2953    2954    3149    2952    2954    3149    2952    2954    2953
    2389    2393    2543    2389    2393    2394    2394    2393    2543
    2392    2394    2393    2393    2394    2544    2392    2394    2544
    3472    3478    3631    3477    3478    3630    3472    3478    3630
    3477    3478    3631    3472    3478    3477    3630    3478    3631
    2332    2331    2344    2332    2331    2333    2333    2331    2344
    2391    2390    2397    2391    2390    2392    2392    2390    2397
    2390    2397    2395    2395    2397    2548    2390    2397    2548
    3468    3474    3623    3468    3474    3624    3473    3474    3623
    3473    3474    3624    3468    3474    3473    3623    3474    3624
    2395    2396    2547    2391    2396    2546    2395    2396    2546
    2391    2396    2547    2546    2396    2547    2391    2396    2395
    3470    3471    3475    3475    3471    3619    3472    3471    3619
    3470    3471    3472    3472    3471    3475    3470    3471    3619
    3476    3475    3625    3476    3475    3626    3471    3475    3626
    3625    3475    3626    3471    3475    3625    3471    3475    3476
    3471    3472    3478    3471    3472    3473    3473    3472    3620
    3473    3472    3478    3478    3472    3620    3471    3472    3620
    3465    3469    3618    3470    3469    3618    3465    3469    3470
    2939    2947    2952    2330    2332    2496    2331    2332    2496
    2330    2332    2331    2331    2344    2389    3469    3470    3471
    3468    3470    3469    3468    3470    3471    3472    3473    3474
    3621    3473    3622    3474    3473    3621    3472    3473    3622
    3474    3473    3622    3472    3473    3621    3475    3476    3477
    3475    3476    3479    3477    3476    3479    3475    3476    3627
    3477    3476    3627    3479    3476    3627    2396    2395    2545
    2396    2395    2397    2397    2395    2545    3464    3465    3466
    3464    3465    3469    3466    3465    3469    2390    2392    2542
    2390    2392    2394    2394    2392    2542    3470    3468    3474
    3467    3468    3470    3467    3468    3474    3478    3477    3629
    3476    3477    3629    3476    3477    3478    3628    3477    3629
    3478    3477    3628    3476    3477    3628    2389    2391    2396
    2390    2391    2396    2389    2391    2390    2344    2389    2391
    2344    2389    2393    2391    2389    2393    2953    2958    3150
    2380    2386    2538    2380    2386    2539    2538    2386    2539
    2385    2386    2538    2385    2386    2539    2380    2386    2385
    2384    2385    2537    2386    2385    2537    2384    2385    2536
    2386    2385    2536    2384    2385    2386    2536    2385    2537
    1096    1101    1105    1102    1101    1105    1096    1101    1102
    2379    2380    2381    2381    2380    2386    2386    2380    2528
    2379    2380    2528    2381    2380    2528    2379    2380    2386
    2383    2384    2535    2383    2384    2385    2383    2384    2387
    2385    2384    2535    2387    2384    2535    2385    2384    2387
    1101    1102    1103    1100    1102    1101    1100    1102    1103
    1102    1103    1111    1102    1103    1104    1104    1103    1111
    2529    2381    2530    2380    2381    2530    2382    2381    2530
    2380    2381    2382    2380    2381    2529    2382    2381    2529
    1101    1105    1107    1101    1105    1106    1106    1105    1107
    1103    1104    1309    1103    1104    1106    1106    1104    1309
    1642    1643    1795    1641    1643    1795    1641    1643    1642
    1643    1641    1646    1637    1641    1643    1637    1641    1646
    1632    1642    1643    1632    1642    1660    1643    1642    1660
    1642    1660    1813    1104    1106    1105    1104    1106    1128
    1105    1106    1128    1105    1107    1129    1105    1107    1108
    1108    1107    1129    2380    2379    2527    2383    2379    2527
    2378    2379    2527    2378    2379    2383    2380    2379    2383
    2378    2379    2380    1102    1100    1308    1099    1100    1308
    1099    1100    1102    2533    2383    2534    2379    2383    2384
    2384    2383    2533    2379    2383    2533    2384    2383    2534
    2379    2383    2534    2384    2387    2540    1638    1637    1641
    1630    1637    1641    1630    1637    1638    2376    2382    2532
    2376    2382    2531    2381    2382    2532    2376    2382    2381
    2381    2382    2531    2531    2382    2532    2938    2951    3147
    3146    2951    3147    3146    2951    3148    3147    2951    3148
    2938    2951    3146    2938    2951    3148    1094    1099    1109
    1100    1099    1109    1094    1099    1100    1106    1128    1323
    1106    1128    1322    1322    1128    1323    1107    1108    1310
    1098    1108    1310    1098    1108    1107    1094    1096    1101
    1098    1096    1101    1094    1096    1098    1107    1129    1324
    1638    1644    1645    1638    1644    1647    1645    1644    1647
    1103    1111    1112    1112    1111    1313    1103    1111    1314
    1112    1111    1314    1313    1111    1314    1103    1111    1313
    2199    2221    2416    1998    2004    2157    2157    2004    2158
    2156    2004    2158    1998    2004    2156    1998    2004    2158
    2156    2004    2157    2190    2200    2199    2199    2200    2402
    2190    2200    2402    1572    1573    1734    1571    1573    1734
    1571    1573    1572    1568    1566    1569    1565    1566    1569
    1565    1566    1568    2197    2199    2221    2197    2199    2200
    2200    2199    2221    1568    1570    1571    1557    1564    1563
    1563    1564    1567    1557    1564    1567    1095    1110    1312
    2006    2024    2177    1096    1094    1099    1095    1094    1096
    1095    1094    1099    1096    1098    1108    1097    1098    1108
    1096    1098    1097    1093    1097    1098    1098    1097    1307
    1093    1097    1307    1662    1669    1667    1662    1669    1820
    1667    1669    1820    2189    2190    2200    2188    2190    2200
    2188    2190    2189    1094    1095    1110    1093    1095    1110
    1093    1095    1094    1668    1667    1669    1668    1667    1817
    1669    1667    1817    1097    1093    1306    1095    1093    1306
    1095    1093    1097    1564    1567    1731    1564    1567    1568
    1568    1567    1731    1567    1568    1570    1566    1568    1570
    1566    1568    1567    1573    1571    1575    1570    1571    1573
    1570    1571    1575    1566    1569    1732    2009    2013    2162
    2009    2013    2014    2014    2013    2162    2012    2014    2013
    2012    2014    2015    2013    2014    2015    2011    2012    2018
    2011    2012    2014    2014    2012    2018    2014    2015    2163
    2014    2015    2019    2019    2015    2163    2016    2015    2019
    2014    2015    2016    2016    2015    2163    2015    2019    2169
    2169    2019    2170    2015    2019    2020    2020    2019    2170
    2015    2019    2170    2020    2019    2169    3377    3379    3381
    3381    3379    3549    3377    3379    3549    2026    2033    2184
    2026    2033    2031    2031    2033    2184    2032    2031    2033
    2032    2031    2181    2033    2031    2181    2021    2020    2023
    2023    2020    2171    2021    2020    2171    2019    2020    2171
    2019    2020    2021    2019    2020    2023    3380    3381    3405
    3379    3381    3405    3379    3381    3380    3406    3410    3409
    3406    3410    3569    3409    3410    3569    3408    3406    3410
    3405    3406    3408    3405    3406    3410    2027    2026    2033
    2027    2026    2028    2028    2026    2033    3406    3405    3563
    3381    3405    3563    3381    3405    3564    3406    3405    3564
    3381    3405    3406    3563    3405    3564    1586    1585    1743
    1743    1585    1744    1586    1585    1744    1561    1585    1586
    1561    1585    1744    1561    1585    1743    2027    2032    2183
    2027    2032    2031    2031    2032    2182    2031    2032    2183
    2182    2032    2183    2027    2032    2182     479     481     480
     480     481     642     479     481     642    1585    1586    1588
    1585    1586    1590    1588    1586    1590    3388    3387    3551
    3384    3387    3388    3384    3387    3551    2020    2023    2176
    2172    2021    2173    2020    2021    2173    2022    2021    2173
    2020    2021    2172    2022    2021    2172    2020    2021    2022
    2015    2016    2164    2022    2016    2164    2015    2016    2022
    2015    2016    2017    2017    2016    2164    2017    2016    2022
    1586    1590    1589    1589    1590    1749    1586    1590    1749
     481     480     482     481     480     641     482     480     641
    2012    2018    2168    2167    2018    2168    2017    2018    2168
    2017    2018    2167    2012    2018    2017    2012    2018    2167
    3402    3401    3559    3397    3401    3559    3397    3401    3402
    3388    3390    3391    2026    2028    2178    2026    2028    2030
    2030    2028    2178    3476    3479    3632    1834    1856    2051
    2050    1856    2051    1834    1856    2050    1656    1659    1812
    1652    1658    1657    1657    1658    1811    1810    1658    1811
    1657    1658    1810    1652    1658    1811    1652    1658    1810
    1655    1656    1807    1657    1656    1659    1659    1656    1807
    1655    1656    1657    1655    1656    1659    1657    1656    1807
    1644    1647    1648    1644    1647    1797    1648    1647    1797
    2016    2017    2018    2165    2017    2166    2016    2017    2166
    2016    2017    2165    2018    2017    2165    2018    2017    2166
    1835    1857    2052    1652    1651    1655    1650    1651    1799
    1655    1651    1799    1650    1651    1655    1652    1651    1799
    1650    1651    1652    2016    2022    2175    2021    2022    2174
    2016    2022    2174    2174    2022    2175    2016    2022    2021
    2021    2022    2175    1648    1650    1651    1649    1650    1651
    1648    1650    1649    1653    1654    1804    1648    1654    1804
    1653    1654    1803    1803    1654    1804    1648    1654    1803
    1648    1654    1653    1652    1653    1654    1654    1653    1802
    1801    1653    1802    1654    1653    1801    1652    1653    1802
    1652    1653    1801    1651    1655    1805    1651    1655    1656
    1805    1655    1806    1656    1655    1806    1651    1655    1806
    1656    1655    1805    1650    1648    1654    1647    1648    1650
    1647    1648    1654    1653    1652    1658    1651    1652    1800
    1651    1652    1658    1651    1652    1653    1658    1652    1800
    1653    1652    1800    1808    1657    1809    1658    1657    1809
    1656    1657    1808    1658    1657    1808    1656    1657    1809
    1656    1657    1658    3401    3402    3560    3400    3402    3560
    3400    3402    3401     929     930    1083     924     930    1083
     929     930    1082     924     930    1082    1082     930    1083
     924     930     929     930     929    1081     928     929    1080
     930     929    1080    1080     929    1081     928     929    1081
     928     929     930     927     928     929     929     928     931
     931     928    1079     927     928    1079     929     928    1079
     927     928     931    1524    1529    1548    1522    1524    1523
    1522    1524    1529    1523    1524    1529     927     923    1071
     922     923     924     922     923    1071     924     923    1071
     922     923     927     924     923     927     923     927     928
     928     927    1078     928     927    1077    1077     927    1078
     923     927    1078     923     927    1077     923     924     930
     930     924    1072     923     924     925     925     924    1072
     923     924    1072     925     924     930    1519    1523    1708
    1519    1523    1524    1524    1523    1708     928     931    1084
    1114    1112    1116    1111    1112    1114    1111    1112    1116
    1459    1457    1461    1459    1457    1670    1461    1457    1670
    1112    1116    1117    1117    1116    1315    1112    1116    1315
    1457    1461    1462    1462    1461    1671    1457    1461    1671
    1645    1649    1798    1645    1649    1650    1650    1649    1798
    1114    1130    1325     921     922     923     920     922     921
     920     922     923     924     925     926     926     925    1074
    1073     925    1074     926     925    1073     924     925    1074
     924     925    1073    1113    1114    1130    1112    1114    1130
    1112    1114    1113    1644    1645    1649    1644    1645    1646
    1646    1645    1649    1645    1646    1796    1641    1646    1645
    1641    1646    1796    1518    1517    1705    1518    1517    1704
    1509    1517    1705    1509    1517    1518    1704    1517    1705
    1509    1517    1704    1520    1522    1524    1521    1519    1523
    1518    1519    1521    1518    1519    1523    3547    3375    3548
    3376    3375    3548    3374    3375    3548    3374    3375    3376
    3374    3375    3547    3376    3375    3547    1561    1559    1729
    1557    1559    1561    1557    1559    1729    1551    1594    1593
    1551    1594    1754    1754    1594    1755    1551    1594    1755
    1593    1594    1754    1593    1594    1755    3369    3374    3375
    1558    1557    1564    1559    1557    1564    1558    1557    1559
     919     920     922     919     920     926     922     920     926
    1560    1584    1742    1550    1548    1552    1529    1548    1552
    1529    1548    1550    3378    3377    3384    3379    3377    3384
    3378    3377    3379    1563    1565    1730    1566    1565    1730
    1563    1565    1566    1562    1563    1564    1562    1563    1565
    1564    1563    1565    1548    1552    1553    1553    1552    1726
    1548    1552    1726    3388    3386    3389    3385    3386    3388
    3385    3386    3389    1099    1109    1311    3383    3384    3387
    3377    3384    3383    3377    3384    3387    3386    3388    3390
    3386    3388    3387    3387    3388    3390    3378    3382    3383
    1558    1562    1563    1548    1550    1549    1548    1550    1725
    1549    1550    1725    3382    3383    3385    3382    3383    3384
    3384    3383    3385    1555    1556    1560    1555    1556    1558
    1558    1556    1560    3376    3380    3404    3376    3380    3381
    3381    3380    3404    3377    3378    3382    3376    3378    3382
    3376    3378    3377    3375    3376    3380    3378    3376    3380
    3375    3376    3378    1549    1554    1555    1554    1555    1556
    1556    1555    1727    1554    1555    1727    1727    1555    1728
    1556    1555    1728    1554    1555    1728    1560    1561    1585
    1559    1561    1560    1559    1561    1585    1556    1560    1561
    1561    1560    1584    1556    1560    1584    1550    1549    1551
    1550    1549    1554    1551    1549    1554    3383    3385    3550
    3383    3385    3386    3386    3385    3550    1556    1558    1557
    1557    1558    1562    1556    1558    1562     925     926    1076
     920     926    1076     920     926     925    1075     926    1076
     925     926    1075     920     926    1075    1549    1551    1553
    1549    1551    1594    1553    1551    1594    3359    3358    3537
    3353    3358    3359    3353    3358    3537    3362    3361    3538
    3359    3361    3362    3359    3361    3538    3358    3359    3361
    3360    3359    3361    3358    3359    3360     482     485     487
     482     485     489     487     485     489     485     487     486
     485     487     645     486     487     645    3353    3355    3357
    3357    3355    3360    3353    3355    3360    3355    3360    3359
    3355    3360    3363    3359    3360    3363    3113    3112    3115
    3115    3112    3263    3111    3112    3263    3113    3112    3263
    3111    3112    3113    3111    3112    3115    3355    3353    3358
    3354    3353    3358    3354    3353    3355    3361    3362    3365
    3361    3362    3364    3364    3362    3365    3362    3365    3540
    3112    3113    3114    3114    3113    3264    3114    3113    3265
    3112    3113    3264    3264    3113    3265    3112    3113    3265
    3362    3364    3363    3362    3364    3539    3363    3364    3539
    3364    3363    3366    3360    3363    3364    3360    3363    3366
    3112    3111    3262    3112    3111    3261    3107    3111    3112
    3261    3111    3262    3107    3111    3262    3107    3111    3261
     488     490     648     489     490     648     488     490     489
     480     482     485     480     482     484     484     482     485
     490     489     647     485     489     490     485     489     647
     482     484     483     483     484     644     482     484     644
    3108    3114    3266    3113    3114    3267    3108    3114    3267
    3266    3114    3267    3108    3114    3113    3113    3114    3266
    3107    3108    3114    3109    3108    3114    3114    3108    3256
    3107    3108    3109    3107    3108    3256    3109    3108    3256
    3356    3357    3536    3355    3357    3356    3355    3357    3536
     488     486     491     487     486     491     487     486     488
     490     488     646     486     488     646     486     488     490
     486     491     649    3104    3110    3259    3104    3110    3260
    3259    3110    3260    3109    3110    3259    3104    3110    3109
    3109    3110    3260    3112    3115    3268    3406    3408    3567
    3406    3408    3407    3407    3408    3567    1514    1512    1697
    1513    1512    1697    1513    1512    1514     938     937    1087
     933     937    1087     933     937     938     748     752     951
     748     752     753     753     752     951    1505    1507    1510
    1509    1507    1510    1505    1507    1509     755     763     768
    1831    1832    1834    1834    1832    2037    1831    1832    2037
     937     938    1088     936     938    1088     936     938     937
    1832    1834    1833    1832    1834    1856    1833    1834    1856
     755     757     756     756     757     761     755     757     761
     751     756     758     757     756     758     751     756     757
     868     872    1037     868     872    1036     873     872    1037
     873     872    1036    1036     872    1037     868     872     873
     759     871    1034     867     871    1035    1034     871    1035
     759     871     867     759     871    1035     867     871    1034
     864     867     871     871     867    1028     864     867    1028
     868     867     871     868     867    1028     864     867     868
     751     753     952     752     753     952     751     753     752
     872     873     874    1038     873    1039     872     873    1039
     874     873    1039     872     873    1038     874     873    1038
    1514    1515    1700    1511    1515    1514    1511    1515    1700
     749     751     756     753     751     756     749     751     753
     754     755     763     754     755     757     757     755     763
    1513    1511    1515    1510    1511    1513    1510    1511    1515
     756     758     953     756     758     759     759     758     953
     756     758     954     759     758     954     953     758     954
     760     759     955     871     759     955     758     759     760
     758     759     955     758     759     871     760     759     871
     759     760     762     761     760     762     759     760     761
     760     761     957     757     761     957     757     761     956
     757     761     760     760     761     956     956     761     957
    1507    1510    1511     934     936     938     934     936    1086
     938     936    1086    1515    1514    1699    1512    1514    1699
    1515    1514    1698    1512    1514    1698    1512    1514    1515
    1698    1514    1699    1512    1513    1516    1511    1513    1512
    1511    1513    1516     750     749     754     750     749     751
     751     749     754     735     745     947     731     746     948
     729     731     746     729     731     730     730     731     746
     731     730     735     731     730     732     732     730     735
     730     735     745     730     735     736     736     735     745
     733     729     942     731     729     942     731     729     733
    1520    1521    1525    1519    1521    1525    1519    1521    1520
     730     732     734     730     732     737     734     732     737
     735     736     738     738     736     944     735     736     944
    3337    3338    3527    3339    3338    3527    3526    3338    3527
    3337    3338    3526    3339    3338    3526    3337    3338    3339
    1513    1516    1703    1702    1516    1703    1701    1516    1703
    1701    1516    1702    1513    1516    1702    1513    1516    1701
    1521    1520    1530    1521    1520    1522    1522    1520    1530
    1521    1525    1710    1709    1525    1711    1710    1525    1711
    1709    1525    1710    1521    1525    1709    1521    1525    1711
     734     733     943     729     733     734     729     733     943
     736     738     737     736     738     739     737     738     739
    1179    1180    1355    1178    1180    1355    1178    1180    1179
    1520    1530    1531    1177    1178    1181    1177    1178    1180
    1180    1178    1181    1178    1181    1356    3344    3343    3528
    3339    3343    3528    3339    3343    3344    1507    1509    1508
    1508    1509    1517    1507    1509    1517    1706    1518    1707
    1519    1518    1706    1519    1518    1707    1517    1518    1706
    1517    1518    1519    1517    1518    1707    3368    3372    3373
    3368    3372    3546    3373    3372    3546    3413    3418    3580
    3417    3418    3580    3580    3418    3581    3413    3418    3581
    3413    3418    3417    3417    3418    3581    3373    3411    3570
    3373    3411    3571    3412    3411    3571    3412    3411    3570
    3570    3411    3571    3373    3411    3412    3418    3413    3573
    3412    3413    3573    3412    3413    3418    3414    3413    3573
    3414    3413    3418    3412    3413    3414    3369    3371    3373
    3373    3371    3414    3369    3371    3414    3370    3368    3372
    3349    3368    3370    3349    3368    3372    3341    3340    3350
    3341    3340    3342    3342    3340    3350    3338    3339    3341
    3338    3339    3343    3341    3339    3343    3371    3414    3575
    3371    3414    3574    3574    3414    3575    3413    3414    3575
    3371    3414    3413    3413    3414    3574    3372    3373    3411
    3371    3373    3411    3371    3373    3372    3354    3352    3356
    3351    3352    3354    3351    3352    3356    1713    1531    1714
    1532    1531    1713    1530    1531    1714    1532    1531    1714
    1530    1531    1713    1530    1531    1532    3339    3341    3345
    3339    3341    3340    3340    3341    3345    3368    3370    3369
    3368    3370    3545    3369    3370    3545    3529    3345    3531
    3341    3345    3530    3529    3345    3530    3341    3345    3529
    3341    3345    3531    3530    3345    3531    3352    3351    3534
    3352    3351    3533    3533    3351    3534    3350    3351    3352
    3350    3351    3534    3350    3351    3533    3344    3349    3368
    3340    3342    3344    3340    3350    3351    3342    3344    3349
    3343    3344    3349    3342    3344    3343    3380    3404    3562
    3370    3369    3371    3370    3369    3374    3371    3369    3374
    3352    3354    3367    3352    3354    3353    3353    3354    3367
    3357    3356    3535    3352    3356    3535    3352    3356    3357
    3354    3367    3544    3411    3412    3413    3415    3412    3572
    3411    3412    3415    3413    3412    3415    3411    3412    3572
    3413    3412    3572     821     826     827     822     821     826
     822     821     823     823     821     826     821     823     866
     825     823     866     821     823     825     826     827     828
     826     827     999     828     827     999     828     827    1000
     999     827    1000     826     827    1000     823     825     863
     823     825     824     824     825     863    3433    3440    3441
    3441    3440    3596    3433    3440    3596     820     824     825
     825     824     998     820     824     998     830     834     835
    3433    3435    3592    3433    3435    3434    3434    3435    3592
     827     828     830     827     828     832     830     828     832
    3103    3104    3106    3103    3104    3110    3106    3104    3110
     820     822     821     820     822     997     821     822     997
    3291    3313    3508     864     863    1022     825     863    1023
    1022     863    1023     864     863    1023     825     863     864
     825     863    1022     835     837     838     838     837    1002
     835     837    1002    1026     866    1027     865     866    1027
     823     866     865     865     866    1026     823     866    1027
     823     866    1026    3110    3109    3258    3257    3109    3258
    3110    3109    3257    3108    3109    3110    3108    3109    3258
    3108    3109    3257    3105    3106    3107    3104    3106    3105
    3104    3106    3107    3439    3441    3597    3440    3441    3597
    3439    3441    3440    3290    3312    3507    3290    3312    3506
    3506    3312    3507    3106    3107    3108    3108    3107    3255
    3106    3107    3111    3108    3107    3111    3111    3107    3255
    3106    3107    3255     801     820     822     801     820     824
     822     820     824    3432    3433    3440    3432    3433    3435
    3435    3433    3440    3435    3434    3591    3430    3434    3591
    3430    3434    3435    3289    3291    3292    3292    3291    3313
    3289    3291    3313     870     865    1025     864     865    1025
     864     865     866     866     865     870     864     865     870
     866     865    1025    2569    2571    2576    2573    2571    2576
    2569    2571    2573    2347    2352    2353    2353    2352    2507
    2347    2352    2507     869     868     872     869     868    1029
     867     868     872     867     868     869     872     868    1029
     867     868    1029     865     864     867     863     864     865
     863     864     867     863     864    1024     865     864    1024
     867     864    1024     770     769     771     770     769     774
     771     769     774     769     774     966    2569    2574    2587
    2575    2574    2587    2569    2574    2575    2351    2353    2352
    2352    2353    2508    2351    2353    2508    2569    2570    2586
    2568    2570    2569    2568    2570    2586     763     768     772
     770     768     772     763     768     770     773     771     775
     769     771     773     769     771     775     865     870     869
     869     870    1032     865     870    1033     869     870    1033
     865     870    1032    1032     870    1033    2570    2569    2571
    2571    2569    2574    2570    2569    2574    2570    2586    2781
     868     869    1031     868     869    1030     870     869    1030
    1030     869    1031     870     869    1031     868     869     870
    2517    2367    2519    2518    2367    2519    2361    2367    2518
    2361    2367    2517    2361    2367    2519    2517    2367    2518
    2782    2587    2784    2574    2587    2782    2574    2587    2784
    2783    2587    2784    2782    2587    2783    2574    2587    2783
     769     770     965     768     770     965     768     770     769
    2357    2361    2367    2357    2361    2362    2362    2361    2367
     750     748     752     747     748     752     747     748     750
     777     778     968     775     778     968     775     778     777
     749     754     767     749     754     755     755     754     767
    3316    3318    3513    3316    3318    3317    3317    3318    3513
    3317    3319    3323    3321    3319    3323    3317    3319    3321
    3318    3317    3322    3318    3317    3319    3319    3317    3322
    3317    3322    3514    3311    3316    3318    3311    3316    3320
    3318    3316    3320    3320    3321    3324    3319    3321    3320
    3319    3321    3324    3326    3323    3328    3319    3323    3326
    3319    3323    3328    3323    3328    3324    3323    3328    3329
    3324    3328    3329    3323    3326    3516    3323    3326    3325
    3325    3326    3516    3327    3325    3515    3326    3325    3515
    3326    3325    3327    3316    3320    3346    3321    3320    3346
    3316    3320    3321    2568    2572    2573    2573    2572    2771
    2568    2572    2771    3327    3329    3337    3328    3329    3337
    3327    3329    3328     739     747     748     949     747     950
     748     747     949     748     747     950     739     747     950
     739     747     949     750     766     961    2769    2567    2770
    2568    2567    2770    2559    2567    2770    2568    2567    2769
    2559    2567    2769    2559    2567    2568    3329    3327    3330
    3325    3327    3330    3325    3327    3329    3248    3096    3249
    3090    3096    3248    3248    3096    3250    3090    3096    3250
    3090    3096    3249    3249    3096    3250     963     767     964
     754     767     962     754     767     964     962     767     963
     754     767     963     962     767     964    2370    2388    2541
    3321    3324    3328    2562    2560    2765    2559    2560    2765
    2559    2560    2562    3524    3337    3525    3338    3337    3525
    3338    3337    3524    3329    3337    3524    3329    3337    3525
    3329    3337    3338    2360    2370    2371    2360    2370    2388
    2371    2370    2388    2361    2362    2368    2360    2362    2368
    2360    2362    2361     740     739     747     738     739     747
     738     739     740    2572    2573    2772    2571    2573    2772
    2571    2573    2572    2362    2368    2520    2362    2368    2522
    2520    2368    2521    2520    2368    2522    2362    2368    2521
    2521    2368    2522    2567    2568    2570    2567    2568    2572
    2570    2568    2572    2558    2559    2567    2558    2559    2560
    2560    2559    2567    3327    3330    3331    3089    3095    3245
    3089    3095    3247    3245    3095    3247    3246    3095    3247
    3089    3095    3246    3245    3095    3246     748     750     766
     748     750     749     749     750     766    3289    3290    3312
    3288    3290    3289    3288    3290    3312    3278    3283    3293
    3278    3283    3284    3284    3283    3293    3296    3298    3297
    3297    3298    3314    3296    3298    3314    3298    3296    3300
    3295    3296    3298    3295    3296    3300    3280    3278    3283
    3279    3278    3280    3279    3278    3283    3283    3284    3492
    3286    3284    3492    3283    3284    3286    3320    3346    3347
    3320    3346    3348    3347    3346    3348    3091    3092    3094
    3094    3092    3244    3091    3092    3244    3346    3348    3532
    3094    3093    3097    3086    3093    3097    3086    3093    3094
    3282    3281    3491    3277    3281    3491    3277    3281    3282
    3285    3289    3290    3285    3289    3291    3290    3289    3291
    3287    3288    3493    3290    3288    3493    3287    3288    3290
    3098    3099    3251    3097    3099    3251    3097    3099    3098
    3088    3098    3116    3099    3098    3116    3088    3098    3099
    3280    3282    3292    3281    3282    3292    3280    3282    3281
    3296    3295    3498    3497    3295    3498    3287    3295    3497
    3287    3295    3296    3287    3295    3498    3296    3295    3497
    3093    3094    3100    3092    3094    3100    3092    3094    3093
    3280    3285    3289    3286    3285    3289    3280    3285    3286
    3088    3090    3089    3089    3090    3096    3088    3090    3096
    3102    3101    3105    3100    3101    3105    3100    3101    3102
    3098    3116    3269    3097    3102    3101    3101    3102    3252
    3097    3102    3252    3086    3088    3098    3090    3088    3098
    3086    3088    3090    3087    3086    3093    3087    3086    3088
    3088    3086    3093    3286    3287    3295    3288    3287    3295
    3286    3287    3288    3298    3314    3509    3284    3286    3285
    3285    3286    3287    3284    3286    3287    3291    3292    3494
    3282    3292    3494    3282    3292    3291    3101    3105    3106
    3106    3105    3254    3101    3105    3254    3101    3100    3103
    3094    3100    3101    3094    3100    3103    3085    3087    3091
    3085    3087    3086    3086    3087    3091    3093    3097    3102
    3099    3097    3102    3093    3097    3099    3092    3091    3243
    3087    3091    3243    3087    3091    3092    3085    3089    3095
    3085    3089    3090    3090    3089    3095    3100    3103    3253
    3100    3103    3104    3104    3103    3253    3278    3280    3285
    3282    3280    3285    3278    3280    3282    3087    3085    3089
    3084    3085    3087    3084    3085    3089    3279    3277    3281
    3281    3277    3490    3279    3277    3490    3277    3279    3278
    3278    3279    3294    3277    3279    3294    2349    2348    2504
    2341    2348    2349    2341    2348    2504    2340    2341    2348
    2340    2341    2343    2343    2341    2348    2342    2343    2500
    2341    2343    2500    2341    2343    2342    2338    2342    2343
    2343    2342    2499    2338    2342    2499     829     831     833
     829     831    1001     833     831    1001     831     833     857
     832     833     857     831     833     832     829     836     835
     835     836     839     829     836     839     836     839     840
     836     839    1003     840     839    1003     831     829     836
     830     829     836     830     829     831    3454    3460    3612
    3454    3460    3614    3612    3460    3614    3612    3460    3613
    3613    3460    3614    3454    3460    3613     838     840     842
     838     840     839     839     840     842     858     862     861
     858     862    1021     861     862    1021    2348    2349    2505
    2347    2349    2348    2347    2349    2505    3453    3454    3460
    3452    3454    3460    3452    3454    3453     860     858     862
     857     858     860     857     858     862    3452    3450    3457
    3451    3450    3457    3451    3450    3452    3450    3452    3454
    3454    3452    3462    3450    3452    3462    1015     857    1016
     833     857     858     833     857    1016     858     857    1016
     833     857    1015     858     857    1015     838     841    1004
     833     832     856     828     832     856     828     832     833
     828     830     829     829     830     834     828     830     834
     834     835     837     834     835     836     836     835     837
     840     838     841     837     838     840     837     838     841
    3450    3451    3455    3449    3451    3455    3449    3451    3450
    1997    2003    2155    1997    2003    2154    2153    2003    2155
    1997    2003    2153    2154    2003    2155    2153    2003    2154
     832     856    1014     840     842     843    2330    2334    2497
    2330    2334    2335    2335    2334    2497    2335    2338    2342
    2339    2338    2342    2335    2338    2339    2339    2340    2346
    2339    2340    2341    2341    2340    2346    3450    3457    3458
    3450    3457    3461    3458    3457    3461    3458    3456    3608
    3455    3456    3608    3455    3456    3458    2354    2355    2356
    2356    2355    2512    2511    2355    2512    2356    2355    2511
    2354    2355    2511    2354    2355    2512    2334    2335    2338
    2333    2335    2334    2333    2335    2338    2355    2356    2357
    2355    2356    2513    2355    2356    2514    2357    2356    2514
    2357    2356    2513    2513    2356    2514    2549    2551    2550
    2550    2551    2566    2549    2551    2566     859     861     862
     859     861    1020     862     861    1020    2346    2347    2352
    2346    2347    2349    2349    2347    2352    2333    2336    2337
    2333    2336    2345    2337    2336    2345    2363    2364    2516
    2363    2364    2366    2366    2364    2516    2351    2354    2355
    2355    2354    2510    2351    2354    2510    2355    2354    2509
    2351    2354    2509    2509    2354    2510    2358    2359    2363
    2357    2359    2358    2357    2359    2363    2359    2357    2361
    2356    2357    2359    2356    2357    2361    2335    2333    2336
    2331    2333    2335    2331    2333    2336    2346    2350    2351
    2346    2350    2506    2351    2350    2506    2347    2346    2350
    2340    2346    2350    2340    2346    2347    2336    2337    2339
    2339    2337    2498    2336    2337    2498    2556    2555    2565
    2550    2555    2565    2550    2555    2556    2364    2363    2515
    2359    2363    2515    2359    2363    2364    2336    2345    2501
    2336    2345    2503    2501    2345    2503    2336    2345    2502
    2501    2345    2502    2502    2345    2503    2555    2565    2767
    2350    2351    2354    2350    2351    2353    2353    2351    2354
    2338    2339    2340    2337    2339    2338    2337    2339    2340
    2551    2566    2768    2558    2556    2764    2555    2556    2764
    2555    2556    2558    3457    3458    3464    3456    3458    3464
    3456    3458    3457    2557    2561    2562    2562    2561    2563
    2557    2561    2563    2561    2563    2585    2564    2563    2585
    2561    2563    2564    2373    2374    2524    2369    2374    2373
    2369    2374    2524    2365    2369    2374    2371    2369    2374
    2365    2369    2371    2374    2373    2377    2372    2373    2377
    2372    2373    2374    2373    2377    2378    2378    2377    2526
    2373    2377    2526    2373    2372    2375    2366    2372    2373
    2366    2372    2375    2369    2371    2370    2370    2371    2523
    2369    2371    2523    2554    2564    2563    2563    2564    2766
    2554    2564    2766    2558    2557    2561    2552    2557    2561
    2552    2557    2558    2552    2554    2564    2552    2554    2553
    2553    2554    2564    2563    2585    2780    2556    2558    2557
    2556    2558    2559    2557    2558    2559    2554    2552    2557
    2550    2552    2557    2550    2552    2554    2554    2553    2763
    2549    2553    2763    2549    2553    2554    2561    2562    2584
    2560    2562    2584    2560    2562    2561    2551    2549    2553
    2551    2549    2762    2553    2549    2762    2358    2365    2366
    2358    2365    2369    2366    2365    2369    2377    2378    2379
    2376    2378    2377    2376    2378    2379    2378    2376    2382
    2375    2376    2378    2375    2376    2382    2372    2375    2525
    2372    2375    2376    2376    2375    2525    2562    2584    2778
    2562    2584    2779    2778    2584    2779    2358    2360    2370
    2358    2360    2362    2362    2360    2370    2365    2366    2372
    2364    2366    2372    2364    2366    2365    2551    2550    2552
    2552    2550    2555    2551    2550    2555    2359    2358    2365
    2360    2358    2365    2359    2358    2360     850     855    1013
     850     852    1010     850     852     854     854     852    1010
     851     849     853     846     849     851     846     849     853
     852     850     855     851     850     855     851     850     852
     842     843     845     842     843     847     845     843     847
    2197    2198    2220    2196    2198    2220    2196    2198    2197
     843     845    1006     843     845     844     844     845    1006
     848     846     849     844     846     848     844     846     849
    2188    2193    2197    2194    2193    2197    2188    2193    2194
     849     851     850     849     851    1009     850     851    1009
     846     848    1008     847     848    1008     846     848     847
     845     844     846     846     844    1005     845     844    1005
     853     854    1012     852     854     853     852     854    1012
    2194    2195    2203    2194    2195    2196    2196    2195    2203
    2193    2197    2199    2193    2197    2198    2198    2197    2199
    3283    3293    3495     848     847    1007     843     847    1007
     843     847     848    2195    2196    2198    2198    2196    2401
    2195    2196    2401     849     853     854     854     853    1011
     849     853    1011    2198    2220    2414    2198    2220    2415
    2414    2220    2415    3279    3294    3496    1975    1973    2134
    1972    1973    1975    1972    1973    2134    2277    2279    2281
    2277    2279    2322    2281    2279    2322    2279    2281    2280
    2280    2281    2319    2279    2281    2319    2276    2280    2281
    2276    2280    2454    2281    2280    2454    2278    2277    2282
    2278    2277    2279    2279    2277    2282    2278    2276    2280
    2257    2276    2278    2257    2276    2280    2277    2282    2283
    2281    2319    2320    2281    2319    2479    2281    2319    2478
    2320    2319    2479    2478    2319    2479    2320    2319    2478
    2319    2320    2321    2319    2320    2323    2321    2320    2480
    2321    2320    2323    2319    2320    2480    2323    2320    2480
    1973    1975    1974    1973    1975    1976    1974    1975    1976
    2320    2323    2484    2324    2323    2484    2327    2323    2484
    2320    2323    2327    2324    2323    2327    2320    2323    2324
    2279    2322    2483    2321    2322    2482    2482    2322    2483
    2321    2322    2483    2279    2322    2321    2279    2322    2482
    1982    1986    1987    1987    1986    2142    1982    1986    2142
    2277    2278    2453    2276    2278    2277    2276    2278    2453
    2322    2321    2326    2320    2321    2322    2322    2321    2481
    2320    2321    2326    2326    2321    2481    2320    2321    2481
    1975    1976    1977    1975    1976    1982    1977    1976    1982
    1986    1987    1989    1989    1987    1990    1986    1987    1990
    2137    1981    2138    2137    1981    2139    1972    1981    2137
    1972    1981    2139    1972    1981    2138    2138    1981    2139
    1983    1982    1986    1976    1982    1983    1976    1982    1986
    2252    2257    2276    2282    2283    2455    2284    2283    2455
    2282    2283    2456    2455    2283    2456    2282    2283    2284
    2284    2283    2456    1973    1972    1981    1969    1972    1973
    1969    1972    1981    1987    1989    2144    1987    1989    1988
    1988    1989    2144    1977    1979    1978    1977    1979    2136
    1978    1979    2136    1982    1983    1988    1982    1983    1985
    1985    1983    1988    1979    1977    1984    1976    1977    1984
    1976    1977    1979    1971    1974    1978    1975    1974    1978
    1971    1974    1975    1983    1988    1989    1983    1988    2143
    1989    1988    2143    3140    2945    3141    2941    2945    3140
    2941    2945    2944    2944    2945    3141    2941    2945    3141
    2944    2945    3140    2985    3004    3006    2985    3004    3008
    3006    3004    3008    2982    2984    3168    2492    2328    2493
    2324    2328    2329    2329    2328    2492    2324    2328    2492
    2329    2328    2493    2324    2328    2493    2963    2965    2973
    2963    2965    2964    2964    2965    2973    2986    2987    2988
    2986    2987    3170    3169    2987    3170    2986    2987    3169
    2988    2987    3169    2988    2987    3170    2955    2953    2958
    2954    2953    2955    2954    2953    2958    2939    2941    2945
    2939    2941    2940    2940    2941    2945    2977    2981    3165
    2977    2981    3167    3166    2981    3167    3165    2981    3167
    3165    2981    3166    2977    2981    3166    2976    2978    2980
    2324    2325    2486    2486    2325    2487    2324    2325    2326
    2326    2325    2487    2326    2325    2486    2324    2325    2487
    3005    3006    3181    3004    3006    3005    3004    3006    3181
    2947    2952    2956    2954    2952    2956    2947    2952    2954
    2325    2324    2485    2323    2324    2328    2328    2324    2485
    2323    2324    2485    2325    2324    2328    2323    2324    2325
    2956    2957    2960    2955    2957    2956    2955    2957    2960
    2957    2960    2964    2980    2985    3004    2975    2974    3163
    3162    2974    3163    2973    2974    3163    2973    2974    3162
    2975    2974    3162    2973    2974    2975    2956    2982    2983
    2956    2982    2984    2983    2982    2984    2978    2976    2986
    2977    2976    2978    2977    2976    2986    2980    2979    3164
    2975    2979    2980    2975    2979    3164    2957    2955    2959
    2953    2955    2957    2953    2955    2959    2965    2973    3160
    3160    2973    3161    2965    2973    3161    2965    2973    2974
    2974    2973    3161    2974    2973    3160    3004    3008    3182
    3004    3008    3009    3009    3008    3182    2978    2980    2985
    2979    2980    2985    2978    2980    2979    2952    2956    2982
    2952    2956    2957    2957    2956    2982    2959    2964    2965
    2959    2964    2960    2960    2964    2965    2974    2975    2977
    2974    2975    2979    2977    2975    2979    2976    2977    2981
    2975    2977    2981    2975    2977    2976    2955    2959    2962
    2955    2959    2964    2962    2959    2964    2321    2326    2325
    2325    2326    2488    2321    2326    2489    2325    2326    2489
    2321    2326    2488    2488    2326    2489    2976    2986    2987
    1631    1635    1636    1636    1635    1787    1631    1635    1787
    1630    1631    1635    1629    1631    1635    1629    1631    1630
    1629    1633    1639    1629    1633    1634    1634    1633    1639
    1631    1629    1633    1628    1629    1631    1628    1629    1633
    1627    1628    1629    1785    1628    1786    1627    1628    1785
    1629    1628    1785    1627    1628    1786    1629    1628    1786
    1626    1627    1628    1628    1627    1784    1628    1627    1783
    1626    1627    1784    1783    1627    1784    1626    1627    1783
    1623    1626    1782    1623    1626    1627    1781    1626    1782
    1627    1626    1782    1623    1626    1781    1627    1626    1781
    1633    1639    1790    1789    1639    1790    1790    1639    1791
    1633    1639    1789    1633    1639    1791    1789    1639    1791
    1618    1622    1623    1623    1622    1778    1618    1622    1778
    1632    1634    1640    1632    1634    1633    1633    1634    1640
    1622    1623    1626    1622    1623    1625    1625    1623    1626
    1635    1636    1638    1638    1636    1788    1635    1636    1788
    2932    2934    2950    2932    2934    2933    2933    2934    2950
    2919    2929    3131    2923    2931    3133    2923    2931    2932
    2932    2931    3134    2932    2931    3133    2923    2931    3134
    3133    2931    3134    1792    1640    1794    1634    1640    1794
    1792    1640    1793    1634    1640    1793    1634    1640    1792
    1793    1640    1794    1637    1638    1644    1636    1638    1644
    1636    1638    1637    1631    1630    1637    1631    1630    1632
    1632    1630    1637    1634    1632    1642    1630    1632    1634
    1630    1632    1642    2931    2932    2934    2931    2932    2936
    2934    2932    2936    2934    2933    2938    2934    2933    2935
    2935    2933    2938    2922    2920    3128    2919    2920    3128
    2919    2920    2922    2914    2919    2929    2914    2919    2920
    2920    2919    2929    2915    2930    3132    2934    2950    3145
    2933    2938    2951    2933    2938    2939    2939    2938    2951
    2187    2202    2404    1665    1666    1816    1664    1666    1665
    1664    1666    1816    1602    1604    1603    1602    1604    1768
    1603    1604    1768    2185    2189    2399    2190    2189    2399
    2185    2189    2190    1662    1664    1814    1662    1664    1666
    1666    1664    1814    1977    1984    2140    1977    1984    1985
    1985    1984    2140    1984    1985    2141    1983    1985    1984
    1983    1985    2141     526     527     529     529     527     532
     526     527     532    1663    1662    1669    1664    1662    1669
    1663    1662    1664     521     528     684     529     528     684
     521     528     529    1774    1617    1775    1773    1617    1774
    1773    1617    1775    1608    1617    1773    1608    1617    1775
    1608    1617    1774    2187    2185    2398    2189    2185    2398
    2187    2185    2189    2186    2187    2202    2185    2187    2202
    2185    2187    2186     527     529     685     528     529     685
     527     529     528    1608    1609    1611    1608    1609    1770
    1611    1609    1770    1661    1665    1666    1666    1665    1815
    1661    1665    1815    1609    1611    1610    1610    1611    1612
    1609    1611    1612    1605    1607    1606    1605    1607    1610
    1606    1607    1610    1604    1603    1616    1604    1603    1605
    1605    1603    1616    1603    1616    1661    1662    1663    1668
    1661    1663    1668    1661    1663    1662    1818    1668    1819
    1663    1668    1667    1667    1668    1818    1663    1668    1819
    1667    1668    1819    1663    1668    1818    1663    1661    1665
    1616    1661    1663    1616    1661    1665    1607    1605    1608
    1603    1605    1608    1603    1605    1607    1607    1610    1614
    1611    1610    1614    1607    1610    1611    1609    1608    1617
    1605    1608    1609    1605    1608    1617    1602    1606    1607
    1607    1606    1769    1602    1606    1769    2190    2188    2193
    2186    2188    2190    2186    2188    2193    2187    2186    2191
    2188    2186    2191    2187    2186    2188    1969    1967    1980
    1968    1967    1980    1968    1967    1969    1965    1964    2128
    2128    1964    2129    1960    1964    1965    1965    1964    2129
    1960    1964    2129    1960    1964    2128    1971    1970    2133
    1966    1970    2133    1966    1970    1971    1965    1966    1970
    1968    1966    1970    1965    1966    1968    1966    1968    1967
    1966    1968    2132    1967    1968    2132    2130    1965    2131
    1964    1965    2131    1966    1965    2131    1966    1965    2130
    1964    1965    1966    1964    1965    2130    1967    1980    2025
    1969    1971    1970    1969    1971    1974    1970    1971    1974
    2027    2025    2029    1980    2025    2027    1980    2025    2029
    2288    2312    2470    1961    1960    2121    1964    1960    2121
    1959    1960    1964    1961    1960    1964    1959    1960    1961
    1959    1960    2121    1967    1969    1972    1971    1969    1972
    1967    1969    1971    2289    2313    2471    2289    2313    2472
    2314    2313    2472    2289    2313    2314    2471    2313    2472
    2314    2313    2471    2284    2288    2289    2289    2288    2312
    2284    2288    2312    1956    1959    1963    1960    1959    2120
    1956    1959    1960    1963    1959    2120    1960    1959    1963
    1956    1959    2120    3407    3409    3568    3407    3409    3410
    3410    3409    3568    2283    2284    2286    2283    2284    2288
    2286    2284    2288    1962    1961    2122    2122    1961    2123
    1960    1961    1962    1962    1961    2123    1960    1961    2122
    1960    1961    2123    1587    1589    1590    1587    1589    1748
    1590    1589    1748    2287    2289    2288    2288    2289    2313
    2287    2289    2313      58      59     244      55      59     244
      55      59      58     242      58     243      56      58     242
      56      58      59      56      58     243      59      58     242
      59      58     243      57      55      59      54      55      57
      54      55      59      57      56     241      57      56      58
      58      56     241    2025    2027    2026    2025    2027    2032
    2026    2027    2032    1974    1978    1979    1979    1978    2135
    1974    1978    2135    2285    2286    2290    2284    2286    2290
    2284    2286    2285    2030    2029    2179    2025    2029    2030
    2025    2029    2179    2959    2962    3152    2961    2962    3152
    2959    2962    2961    2029    2030    2180    2028    2030    2180
    2028    2030    2029    1821    1825    2035    1826    1825    2035
    1821    1825    1826    2963    2966    2967    2967    2969    2968
    2967    2969    2972    2968    2969    2972    1471    1493    1688
    1686    1492    1687    1470    1492    1687    1470    1492    1686
      51      54      55    1833    1835    1857    1836    1835    1857
    1833    1835    1836    2969    2972    3157    3157    2972    3158
    2969    2972    3159    2969    2972    3158    3157    2972    3159
    3158    2972    3159    2967    2971    3156    2970    2971    3156
    2967    2971    2970    2968    2970    3154    2971    2970    3155
    3154    2970    3155    2968    2970    2971    2971    2970    3154
    2968    2970    3155    2969    2967    2971    2966    2967    2969
    2966    2967    2971    1826    1836    1835    1826    1836    2038
    1835    1836    2038    2962    2961    3151    2962    2961    2963
    2963    2961    3151    2961    2963    2966    2965    2963    2966
    2961    2963    2965    2969    2968    2970    2970    2968    3153
    2969    2968    3153    1824    1826    1825    1825    1826    1836
    1824    1826    1836    1526    1528    1712    1478    1476    1480
    1475    1476    1478    1475    1476    1480    1477    1478    1494
    1476    1478    1494    1476    1478    1477    1466    1467    1468
    1468    1467    1475    1466    1467    1475    1478    1494    1689
    1478    1477    1482    1478    1477    1479    1479    1477    1482
    1465    1466    1467    1464    1466    1465    1464    1466    1467
    1467    1468    1673    1470    1468    1673    1467    1468    1470
    1460    1465    1466    1466    1465    1469    1460    1465    1469
    1467    1475    1476    1476    1475    1677    1476    1475    1678
    1467    1475    1678    1677    1475    1678    1467    1475    1677
    1465    1469    1470    1470    1469    1471    1465    1469    1471
    1458    1460    1465    1458    1460    1462    1462    1460    1465
    1459    1458    1463    1459    1458    1460    1460    1458    1463
    1476    1480    1679    1476    1480    1481    1481    1480    1679
    1463    1464    1672    1463    1464    1466    1466    1464    1672
    1458    1463    1473    1458    1463    1464    1464    1463    1473
    1477    1482    1495    1477    1482    1483    1483    1482    1495
    1477    1479    1484    1477    1479    1481    1481    1479    1484
    1479    1481    1480    1479    1481    1680    1480    1481    1680
    1479    1484    1486    1485    1484    1486    1479    1484    1485
    1484    1485    1489    1483    1485    1489    1483    1485    1484
    1458    1459    1474    1457    1459    1474    1457    1459    1458
    1461    1462    1472    1460    1462    1461    1460    1462    1472
    1468    1470    1492    1468    1470    1469    1469    1470    1492
    1472    1471    1493    1469    1471    1493    1469    1471    1472
    1690    1495    1692    1482    1495    1691    1482    1495    1690
    1482    1495    1692    1691    1495    1692    1690    1495    1691
    1462    1472    1674    1462    1472    1471    1471    1472    1674
    1459    1474    1676    1527    1526    1528    1500    1526    1527
    1500    1526    1528    1485    1483    1491    1482    1483    1485
    1482    1483    1491    1463    1473    1675    1501    1504    1508
    1600    1601    1767    1602    1601    1766    1766    1601    1767
    1602    1601    1767    1600    1601    1602    1600    1601    1766
    1485    1489    1488    1488    1489    1684    1684    1489    1685
    1485    1489    1685    1485    1489    1684    1488    1489    1685
    1915    1958    2118    1957    1958    2118    2118    1958    2119
    1957    1958    2119    1915    1958    1957    1915    1958    2119
    1956    1957    2117    1962    1957    2117    1958    1957    1962
    1956    1957    1958    1958    1957    2117    1956    1957    1962
    1595    1596    1600    1597    1596    1600    1595    1596    1597
    1595    1596    1757    1600    1596    1757    1597    1596    1757
    1604    1602    1606    1601    1602    1604    1601    1602    1606
    1488    1487    1683    1486    1487    1488    1486    1487    1683
    1488    1487    1599    1486    1487    1599    1599    1487    1683
    1487    1488    1490    1487    1488    1489    1489    1488    1490
    2124    1962    2125    1957    1962    1961    1961    1962    2124
    1957    1962    2125    1961    1962    2125    1957    1962    2124
    1596    1597    1758    1598    1597    1758    1596    1597    1759
    1758    1597    1759    1596    1597    1598    1598    1597    1759
    1764    1600    1765    1596    1600    1601    1601    1600    1765
    1596    1600    1765    1601    1600    1764    1596    1600    1764
    1553    1591    1592    1592    1591    1751    1553    1591    1750
    1592    1591    1750    1553    1591    1751    1750    1591    1751
    1595    1599    1763    1487    1599    1595    1487    1599    1762
    1487    1599    1763    1762    1599    1763    1595    1599    1762
    1593    1598    1761    1593    1598    1760    1597    1598    1761
    1597    1598    1760    1593    1598    1597    1760    1598    1761
    1592    1593    1753    1592    1593    1598    1598    1593    1753
    1594    1593    1598    1592    1593    1594    1594    1593    1753
    1591    1592    1752    1593    1592    1595    1595    1592    1752
    1593    1592    1752    1591    1592    1593    1591    1592    1595
    1955    1956    2116    1957    1956    2116    1955    1956    1959
    1959    1956    2116    1955    1956    1957    1957    1956    1959
    1592    1595    1599    1592    1595    1596    1599    1595    1756
    1592    1595    1756    1596    1595    1756    1596    1595    1599
    1681    1486    1682    1484    1486    1681    1487    1486    1682
    1484    1486    1487    1484    1486    1682    1487    1486    1681
    1551    1553    1552    1551    1553    1591    1552    1553    1591
    1841    1843    1845    1841    1843    1848    1845    1843    1848
    1852    1853    2048    2048    1853    2049    1849    1853    2049
    1849    1853    2048    1852    1853    2049    1849    1853    1852
    1851    1852    1854    1851    1852    1853    1853    1852    1854
    1847    1855    1860    1862    1860    1864    1855    1860    1862
    1855    1860    1864    1847    1849    1853    1847    1849    1848
    1848    1849    1853    1849    1847    1855    1846    1847    1849
    1846    1847    1855    1849    1848    1850    1843    1848    1849
    1843    1848    1850    1860    1862    2057    1861    1862    2057
    1860    1862    1861    1847    1846    1859    1841    1846    1847
    1841    1846    1859    1844    1845    2044    1843    1845    2044
    1843    1845    1844    1848    1850    2046    1848    1850    2045
    1851    1850    2046    1848    1850    1851    1851    1850    2045
    2045    1850    2046    1842    1841    1846    1843    1841    1846
    1842    1841    1843    1861    1866    2058    3363    3366    3542
    3541    3366    3542    3541    3366    3543    3363    3366    3541
    3363    3366    3543    3542    3366    3543    1963    1851    2047
    1850    1851    2047    1852    1851    2047    1850    1851    1852
    1850    1851    1963    1852    1851    1963    1865    1864    1890
    1860    1864    1890    1860    1864    1865    1845    1844    2043
    1840    1844    2043    1840    1844    1845      50      49     239
      50      49      51      51      49     239    1863    1861    1866
    1862    1861    1866    1862    1861    1863    1851    1963    2127
    1851    1963    2126    1959    1963    2127    2126    1963    2127
    1851    1963    1959    1959    1963    2126    1846    1859    2054
    2054    1859    2056    1846    1859    2056    2054    1859    2055
    1846    1859    2055    2055    1859    2056    1840    1842    1858
    1841    1842    1858    1840    1842    1841    1864    1890    1892
    1891    1890    1892    1864    1890    1891      53      51      54
      49      51      54      49      51      53    3408    3407    3565
    3408    3407    3566    3565    3407    3566    3408    3407    3409
    3409    3407    3565    3409    3407    3566      68      73      92
    1839    1840    1842    1839    1840    1844    1842    1840    1844
    1829    1833    1835    1829    1833    1834    1834    1833    1835
    1825    1821    2034    1823    1821    2034    1823    1821    1825
      55      57      60      56      57      60      55      57      56
    1824    1822    1827    1823    1822    1827    1823    1822    1824
      94      93      98      94      93      95      95      93      98
    1832    1831    1839    1830    1831    1839    1830    1831    1832
    1824    1829    1833    1824    1829    1830    1830    1829    1833
    1826    1824    1829    1822    1824    1829    1822    1824    1826
    1828    1827    1837    1822    1827    1837    1822    1827    1828
    1828    1830    1829    1828    1830    1831    1829    1830    1831
     245      60     246     245      60     247      57      60     245
      57      60     247      57      60     246     246      60     247
    1842    1858    2053    1840    1839    2042    2041    1839    2042
    1840    1839    2041    1831    1839    2041    1831    1839    1840
    1831    1839    2042    1823    1838    2040     798     800     984
    1830    1828    2036    1827    1828    2036    1827    1828    1830
    1506    1505    1507    1507    1505    1695    1506    1505    1695
    1827    1837    2039      93      94     269      92      94      93
      92      94     269    1822    1823    1838    1821    1823    1822
    1821    1823    1838      94      92      96      73      92      94
      73      92      96     799     798     800     772     798     799
     772     798     800    1497    1499    1501    1497    1499    1503
    1501    1499    1503    1498    1497    1499    1498    1497    1502
    1499    1497    1502    1496    1498    1693    1496    1498    1497
    1497    1498    1693    1491    1496    1500    1498    1496    1500
    1491    1496    1498    1499    1503    1506    1499    1503    1508
    1506    1503    1508    1500    1501    1504    1499    1501    1504
    1499    1501    1500    1504    1508    1509    1503    1508    1509
    1503    1508    1504    1497    1502    1694     104     128     286
     100     104     105     105     104     128     100     104     128
    1483    1491    1496    3332    3334    3335    3335    3334    3518
    3518    3334    3519    3332    3334    3519    3332    3334    3518
    3335    3334    3519     105     129     287     105     129     288
     130     129     287     287     129     288     130     129     288
     105     129     130      98      99     272     271      99     272
      98      99     100     100      99     272      98      99     271
     100      99     271     132     130     134     129     130     132
     129     130     134      93      98      99    1496    1500    1501
    1496    1500    1526    1501    1500    1526     131     132     291
     130     132     131     130     132     291     131     133     134
     134     133     292     131     133     292     130     134     293
     133     134     293     130     134     133    1505    1506    1696
    1503    1506    1505    1503    1506    1696     289     131     290
     132     131     133     133     131     290     132     131     289
     133     131     289     132     131     290     103     105     104
     103     105     129     104     105     129    3331    3335    3334
    3334    3335    3520    3331    3335    3520    1924    1948    2106
      99     100     102      99     100     104     102     100     104
    2306    2311    2469    1913    1915    1958    1917    1915    1958
    1913    1915    1917    1535    1537    1536    1535    1537    1716
    1536    1537    1716    1542    1545    1720    1721    1546    1723
    1543    1546    1721    1721    1546    1722    1543    1546    1723
    1543    1546    1722    1722    1546    1723    1532    1536    1537
    1532    1536    1715    1537    1536    1715    1917    1955    2115
    1956    1955    2115    1956    1955    2114    2114    1955    2115
    1917    1955    1956    1917    1955    2114    1541    1542    1544
    1541    1542    1545    1544    1542    1545    1539    1541    1542
    1542    1541    1718    1539    1541    1718    1918    1919    1920
    1920    1919    2092    1918    1919    2091    1920    1919    2091
    1918    1919    2092    2091    1919    2092    1534    1547    1724
    1534    1533    1538    1534    1533    1535    1535    1533    1538
    1534    1532    1536    1531    1532    1534    1531    1532    1536
    1542    1544    1719    1542    1544    1543    1543    1544    1719
    1532    1534    1547    1533    1534    1547    1532    1534    1533
    1912    1916    1917    1917    1916    2090    1912    1916    2090
    1533    1538    1539    1533    1538    1717    1539    1538    1717
    1540    1543    1544    1540    1543    1546    1544    1543    1546
    1537    1535    1540    1533    1535    1537    1533    1535    1540
    1539    1540    1543    1535    1540    1539    1535    1540    1543
    1915    1917    1955    1915    1917    1916    1916    1917    1955
    1538    1539    1541    1538    1539    1540    1540    1539    1541
    1888    1893    1912    1893    1912    1914    1893    1912    1916
    1914    1912    1916     795     796     801     794     796     795
     794     796     801     796     795     980     791     795     796
     791     795     980     792     794     796     791     793     797
     791     793     792     792     793     797     982     797     983
     981     797     983     981     797     982     793     797     982
     793     797     981     793     797     983     792     802     803
     794     792     802     793     792     802     793     792     794
     793     791     795     790     791     793     790     791     795
     985     803     986     804     803     986     802     803     804
     804     803     985     802     803     986     802     803     985
    1865    1868    1872     782     783     785     782     783     787
     785     783     787     809     808     987     804     808     809
     804     808     987     779     782     783     806     804     808
     803     804     806     803     804     808     796     801     820
    1890    1892    2076    1861    1863    1865    1861    1863    1867
    1865    1863    1867    3023    3024    3026    3022    3024    3026
    3022    3024    3023    3024    3026    3027     974     788     975
     785     788     973     973     788     974     785     788     975
     785     788     974     973     788     975     783     785     788
     784     785     788     783     785     784    1863    1865    1868
    1863    1865    1864    1864    1865    1868    3022    3025    3188
     791     790     979     978     790     979     789     790     979
     789     790     978     791     790     978     789     790     791
    3024    3022    3025    3021    3022    3024    3021    3022    3025
    3057    3058    3060    3057    3058    3062    3060    3058    3062
     779     777     967     778     777     779     778     777     967
     777     779     782     781     779     782     777     779     781
     790     789     976     976     789     977     790     789     977
     781     789     976     781     789     977     781     789     790
     778     775     780     771     775     778     771     775     780
     786     787     972     783     787     786     783     787     972
    3059    3072    3117    3117    3119    3124    3118    3119    3124
    3117    3119    3118     773     772     798     768     772     798
     768     772     773    3061    3059    3072    3060    3059    3072
    3060    3059    3061     775     780     776     776     780     781
     775     780     781     773     776     780     771     773     772
     771     773     776     772     773     776    3122    3121    3271
    3117    3121    3271    3117    3121    3122    3119    3118    3125
    3119    3118    3120    3120    3118    3125    3058    3060    3059
    3058    3060    3224    3059    3060    3224    3118    3120    3122
    3118    3120    3270    3122    3120    3270     779     781     789
     779     781     780     780     781     789    3119    3117    3121
    3072    3117    3119    3072    3117    3121    3121    3122    3272
    3120    3122    3272    3120    3122    3121    3123    3124    3275
    3119    3124    3123    3123    3124    3274    3119    3124    3274
    3274    3124    3275    3119    3124    3275      93      95      97
      97      95     138      93      95     138      95     138     299
     298     138     299      95     138     137     137     138     298
     137     138     299      95     138     298    3064    3065    3067
    3064    3065    3226    3067    3065    3226    3061    3064    3065
    3061    3064    3073    3065    3064    3073    3230    3073    3231
    3064    3073    3230    3229    3073    3231    3064    3073    3229
    3229    3073    3230    3064    3073    3231     102     101     108
     102     101     103     103     101     108    3074    3078    3234
    3079    3078    3234    3074    3078    3079    3066    3067    3068
    3065    3067    3066    3065    3067    3068     101     108     107
     101     108     111     107     108     111     108     111     275
     112     111     275     108     111     112     100     102     106
     100     102     101     101     102     106    3068    3074    3078
    3068    3074    3075    3075    3074    3078     101     103     105
     101     103     273     105     103     273    3522    3336    3523
    3521    3336    3523    3333    3336    3521    3333    3336    3523
    3521    3336    3522    3333    3336    3522    3061    3063    3062
    3061    3063    3066    3062    3063    3066    3063    3061    3064
    3059    3061    3063    3059    3061    3064    3069    3068    3074
    3067    3068    3074    3067    3068    3069    3331    3333    3332
    3331    3333    3336    3332    3333    3336    3058    3062    3063
    3063    3062    3225    3058    3062    3225    3333    3331    3335
    3330    3331    3333    3330    3331    3335     117     115     119
     114     115     117     114     115     119     102     106     107
     115     119     120     120     119     279     115     119     279
     111     112     114     110     112     114     110     112     111
    3334    3332    3517    3333    3332    3517    3333    3332    3334
     112     114     115     106     107     108     108     107     109
     106     107     109     807     809     808     807     809     988
     808     809     988    1870    1867    1872    1863    1867    1872
    1863    1867    1870     806     805     810     806     805     807
     807     805     810    1868    1872    1873    1867    1872    1873
    1867    1872    1868    2066    1880    2067    1877    1880    2066
    1877    1880    2065    2065    1880    2066    1877    1880    2067
    2065    1880    2067    3079    3081    3236    3080    3081    3236
    3079    3081    3080     804     806     819     804     806     805
     805     806     819    1871    1874    1875    1873    1871    1874
    1869    1871    1873    1869    1871    1874    1878    1876    2061
    1877    1876    2061    1877    1876    1878     806     819     996
    3078    3079    3082    3081    3079    3082    3078    3079    3081
    3079    3082    3083    3083    3082    3237    3237    3082    3238
    3079    3082    3238    3083    3082    3238    3079    3082    3237
    1878    1879    2064    1875    1879    1878    1875    1879    2064
    3081    3080    3235    3075    3080    3081    3075    3080    3235
    1870    1869    1871    1870    1869    2059    1871    1869    2059
    1872    1873    1881    1871    1873    1881    1871    1873    1872
    1875    1877    1876    1875    1877    1880    1876    1877    1880
    3085    3084    3241    3241    3084    3242    3083    3084    3085
    3083    3084    3241    3085    3084    3242    3083    3084    3242
    1874    1875    1879    1877    1875    1879    1874    1875    1877
     809     807     812     805     807     809     805     807     812
    3239    3083    3240    3082    3083    3239    3082    3083    3240
    3084    3083    3240    3084    3083    3239    3082    3083    3084
    1867    1870    1869    1867    1870    2060    1869    1870    2060
    1882    1881    2069    1873    1881    2069    1873    1881    1882
    1882    1881    2068    1873    1881    2068    2068    1881    2069
    1876    1878    2062    2062    1878    2063    1876    1878    1879
    1879    1878    2063    1876    1878    2063    1879    1878    2062
     811     812     815     807     812     811     807     812     815
    3074    3075    3077    3077    3075    3080    3074    3075    3080
    2205    2207    2212    2205    2207    2209    2209    2207    2212
    2212    2214    2410    2212    2214    2409    2212    2214    2215
    2409    2214    2410    2215    2214    2410    2215    2214    2409
    2206    2205    2210    2206    2205    2207    2207    2205    2210
    2207    2212    2213    2207    2212    2214    2213    2212    2214
    2205    2210    2223    2205    2210    2211    2211    2210    2223
    2216    2217    2413    2213    2217    2413    2216    2217    2412
    2213    2217    2412    2213    2217    2216    2412    2217    2413
    2211    2219    2224    2226    2224    2228    2219    2224    2226
    2219    2224    2228    2229    2228    2254    2224    2228    2254
    2224    2228    2229    2255    2254    2256    2228    2254    2255
    2228    2254    2256    2213    2211    2219    2210    2211    2213
    2210    2211    2219    2217    2216    2218    2215    2216    2217
    2215    2216    2218    2212    2213    2217    2211    2213    2212
    2211    2213    2217    2207    2209    2208    2207    2209    2408
    2208    2209    2408     786     784     969     785     784     969
     785     784     786    2327    2215    2411    2214    2215    2327
    2214    2215    2411    2216    2215    2411    2216    2215    2327
    2214    2215    2216    3014    3018    3019    2224    2226    2421
    2225    2226    2421    2224    2226    2225    3022    3021    3186
    3019    3021    3186    3019    3021    3022    3018    3019    3021
    3020    3019    3021    3018    3019    3020    2210    2223    2418
    2210    2223    2420    2418    2223    2420    2210    2223    2419
    2418    2223    2419    2419    2223    2420     858     860     859
     859     860    1019     858     860    1019    3010    3011    3184
    3010    3011    3012    3010    3011    3183    3012    3011    3183
    3012    3011    3184    3183    3011    3184    2204    2206    2205
    2204    2206    2222    2205    2206    2222    2254    2256    2440
    2204    2208    2407    2204    2208    2209    2209    2208    2407
    2215    2327    2323    2490    2327    2491    2323    2327    2491
    2215    2327    2491    2323    2327    2490    2215    2327    2490
    2227    2229    2228    2227    2229    2232    2228    2229    2232
    2987    2988    2990    2987    2988    2992    2990    2988    2992
    3123    3125    3276    3118    3125    3276    3118    3125    3123
     787     786     970     787     786     971     784     786     787
     970     786     971     784     786     971     784     786     970
    2988    2990    3003    2988    2990    2989    2989    2990    3003
    3125    3123    3273    3124    3123    3273    3124    3123    3125
    3009    3047    3206    3048    3047    3206    3048    3047    3207
    3009    3047    3048    3206    3047    3207    3009    3047    3207
    3056    3057    3058    3056    3057    3223    3222    3057    3223
    3056    3057    3222    3058    3057    3222    3058    3057    3223
    2943    3055    3051    3218    3055    3219    2943    3055    3218
    3051    3055    3218    2943    3055    3219    3051    3055    3219
    3007    3009    3047    3008    3009    3047    3007    3009    3008
    3007    3005    3010    3006    3005    3010    3006    3005    3007
    1017     859    1018     860     859    1018     860     859    1017
     861     859    1017     861     859    1018     860     859     861
    3005    3010    3011    3005    3007    3009    3005    3007    3050
    3009    3007    3050    2943    2944    2945    2943    2944    2946
    2945    2944    2946    2990    3003    3180     122     127     285
    2935    2940    2942    2935    2940    2941    2941    2940    2942
    3052    3051    3055    3048    3051    3052    3052    3051    3212
    3048    3051    3055    3055    3051    3212    3048    3051    3212
    3051    3052    3213    3053    3052    3056    3053    3052    3213
    3051    3052    3056    3051    3052    3053    3056    3052    3213
    3052    3056    3221    3057    3056    3220    3052    3056    3220
    3220    3056    3221    3052    3056    3057    3057    3056    3221
    2944    2943    3139    3055    2943    3139    2944    2943    3055
    2942    2943    2944    2942    2943    3139    2942    2943    3055
    3054    3049    3209    3048    3049    3050    3050    3049    3054
    3048    3049    3054    3050    3049    3209    3048    3049    3209
    3047    3048    3208    3051    3048    3208    3047    3048    3049
    3047    3048    3051    3049    3048    3208    3049    3048    3051
    3049    3054    3053    3053    3054    3216    3049    3054    3217
    3053    3054    3217    3216    3054    3217    3049    3054    3216
    3052    3053    3215    3054    3053    3214    3214    3053    3215
    3052    3053    3054    3054    3053    3215    3052    3053    3214
    2940    2942    3138    2940    2942    3137    2940    2942    2943
    3137    2942    3138    2943    2942    3138    2943    2942    3137
    3007    3050    3049    3049    3050    3210    3210    3050    3211
    3007    3050    3211    3049    3050    3211    3007    3050    3210
     121     125     126     121     125     283     126     125     283
     123     121     125     118     121     123     118     121     125
     120     118     121     116     118     120     116     118     121
     124     126     284     125     126     284     124     126     125
     121     123     281     122     123     281     121     123     122
     117     116     118     117     116     277     118     116     277
    3069    3076    3232    3077    3076    3232    3069    3076    3077
    3069    3071    3070    3069    3071    3228    3070    3071    3228
    2935    2937    2936    2936    2937    3136    2935    2937    3136
     122     124     282     122     124     126     126     124     282
    2926    2924    3129    2923    2924    3129    2923    2924    2926
    2932    2936    3135    2932    2936    2937    2937    2936    3135
     123     122     124     124     122     127     123     122     127
    2916    2921    2925    2916    2921    2922    2922    2921    2925
    2918    2916    2921    2914    2916    2921    2914    2916    2918
    3071    3069    3076    3068    3069    3076    3068    3069    3071
     115     117     278     116     117     278     115     117     116
    2915    2914    2919    2915    2914    2916    2916    2914    2919
    3066    3070    3071    3071    3070    3227    3066    3070    3227
     118     120     280     119     120     280     118     120     119
    2992    2993    3172    2991    2993    2992    2991    2993    3172
    2913    2915    2914    2914    2915    2930    2913    2915    2930
    2989    2991    2996    2993    2991    2996    2989    2991    2993
    2915    2913    2917    2915    2913    3126    2917    2913    3126
    2920    2922    2921    2921    2922    2923    2920    2922    2923
    2993    2992    3171    2988    2992    2993    2988    2992    3171
    2933    2935    2940    2937    2935    2940    2933    2935    2937
    2922    2923    2931    2922    2923    2924    2924    2923    2931
    3063    3066    3067    3067    3066    3070    3063    3066    3070
    3075    3077    3233    3075    3077    3076    3076    3077    3233
    2193    2194    2195    2192    2194    2193    2192    2194    2195
    3142    2948    3143    2926    2948    3142    2926    2948    3143
    2191    2201    2403    2921    2925    2926    2926    2925    2927
    2921    2925    2927    2925    2926    2948    2924    2926    2948
    2924    2926    2925    2918    2928    2927    2927    2928    3130
    2918    2928    3130    2191    2192    2400    2194    2192    2400
    2191    2192    2194     814     817     992     811     813     814
     811     813     990     814     813     990     813     814     816
     816     814     817     813     814     817    2916    2918    2917
    2917    2918    2928    2916    2918    2928    2913    2917    3127
    2918    2917    3127    2913    2917    2918    2186    2191    2201
    2192    2191    2201    2186    2191    2192    2927    2949    3144
     533     532     687     527     532     533     527     532     687
    2925    2927    2949    2928    2927    2949    2925    2927    2928
    2206    2222    2417     810     811     812     810     811     813
     812     811     813    2195    2203    2405    2204    2203    2406
    2195    2203    2204    2405    2203    2406    2204    2203    2405
    2195    2203    2406    2203    2204    2206    2203    2204    2208
    2206    2204    2208     805     810     811     805     810     989
     811     810     989     395     507     671     395     507     503
     670     507     671     395     507     670     503     507     671
     503     507     670     196     202     354     201     202     355
     196     202     355     196     202     201     354     202     355
     201     202     354     200     201     353     200     201     352
     200     201     202     202     201     353     202     201     352
     352     201     353    2249    2248    2250    2249    2248    2258
    2250    2248    2258    2248    2250    2252    2249    2247    2251
    2246    2247    2249    2246    2247    2251    2441    2259    2442
    2260    2259    2442    2258    2259    2442    2260    2259    2441
    2258    2259    2441    2258    2259    2260     199     200     201
     199     200     203     201     200     351     203     200     351
     201     200     203     199     200     351    2248    2258    2259
     397     396     398     395     396     397     395     396     398
     503     500     660     499     500     660     501     500     503
     501     500     660     499     500     501     499     500     503
    2248    2249    2253    2247    2249    2248    2247    2249    2253
     508     504     665     505     504     508     503     504     665
     503     504     508     505     504     665     503     504     505
    2247    2251    2252    2247    2251    2436    2252    2251    2436
     197     196     202     195     196     344     202     196     344
     195     196     202     195     196     197     197     196     344
    2247    2246    2434    2434    2246    2435    2245    2246    2435
    2245    2246    2434    2245    2246    2247    2247    2246    2435
     500     503     504     504     503     664     507     503     664
     500     503     664     500     503     507     504     503     507
    1224    1223    1381    1225    1223    1382    1224    1223    1382
    1381    1223    1382    1224    1223    1225    1225    1223    1381
    2259    2260    2262    2259    2260    2264    2262    2260    2264
     393     397     592     393     397     593     396     397     593
     393     397     396     396     397     592     592     397     593
    2437    2253    2439    2249    2253    2438    2249    2253    2437
    2438    2253    2439    2437    2253    2438    2249    2253    2439
    1226    1225    1384    1223    1225    1384    1223    1225    1226
     345     197     346     196     197     345     196     197     346
     198     197     346     196     197     198     198     197     345
    2260    2264    2443    2265    2264    2443    2260    2264    2265
     199     195     343     194     195     343     196     195     199
     194     195     196     196     195     343     194     195     199
     500     499     658     461     499     658     500     499     659
     461     499     659     658     499     659     461     499     500
     506     505     667     504     505     506     504     505     667
     666     505     667     504     505     666     506     505     666
     200     199     349     195     199     349     200     199     350
     195     199     350     195     199     200     349     199     350
     200     203     356     396     395     591     507     395     591
     396     395     507     394     395     396     394     395     591
     394     395     507    2251    2252    2257    2250    2252    2251
    2250    2252    2257    2286    2290    2291    2748    2751    2904
    1299    1298    1305    1299    1298    1300    1300    1298    1305
     181     182     188     180     182     188     180     182     181
    2747    2748    2751    2751    2748    2899    2747    2748    2749
    2749    2748    2751    2747    2748    2899    2749    2748    2899
    1304    1303    1453    1305    1303    1453    1304    1303    1305
    1298    1305    1456    1303    1305    1456    1298    1305    1303
    1297    1299    1304    1298    1299    1304    1297    1299    1298
     180     179     331     175     179     331     175     179     180
    2290    2291    2293    2290    2291    2292    2292    2291    2293
    2748    2749    2901    2748    2749    2900    2750    2749    2900
    2900    2749    2901    2750    2749    2901    2748    2749    2750
     189     188     191     182     188     189     182     188     191
    2294    2293    2458    2291    2293    2294    2291    2293    2458
     189     193     194     194     193     342     189     193     342
     188     191     341     188     191     192     192     191     341
     191     192     198     194     192     198     191     192     194
    2294    2297    2460    2296    2294    2297    2293    2294    2296
    2293    2294    2297     179     180     332     182     180     332
     179     180     182     347     198     348     192     198     347
     197     198     348     197     198     347     192     198     197
     192     198     348    2744    2750    2749    2749    2750    2902
    2902    2750    2903    2749    2750    2903    2744    2750    2903
    2744    2750    2902    1299    1304    1303    1303    1304    1455
    1454    1304    1455    1299    1304    1454    1303    1304    1454
    1299    1304    1455     192     194     193     192     194     195
     193     194     195     188     189     193     188     189     190
     190     189     193    2740    2746    2895    2745    2746    2895
    2895    2746    2896    2745    2746    2896    2740    2746    2745
    2740    2746    2896    2744    2745    2894    2744    2745    2746
    2746    2745    2894    2746    2745    2893    2893    2745    2894
    2744    2745    2893    1938    1941    1943    1938    1941    1945
    1943    1941    1945    2743    2744    2745    2745    2744    2892
    2743    2744    2750    2745    2744    2750    2743    2744    2892
    2750    2744    2892    1941    1943    1942    1942    1943    2101
    1941    1943    2101    1944    1946    2104    1945    1946    2104
    1944    1946    1945    1941    1945    1946    1941    1945    2103
    1946    1945    2103    1944    1942    1947    1943    1942    1944
    1943    1942    1947    1618    1619    1624    1618    1619    1621
    1621    1619    1624    1625    1624    1779    1619    1624    1625
    1619    1624    1779    1619    1621    1777    1620    1621    1777
    1619    1621    1620    2747    2743    2891    2742    2743    2891
    2744    2743    2747    2744    2743    2891    2742    2743    2744
    2742    2743    2747    1936    1938    1941    1940    1938    1941
    1936    1938    1940    2739    2740    2742    2742    2740    2746
    2739    2740    2746    1937    1936    2097    1938    1936    2097
    1937    1936    1938    1942    1944    1946    1942    1944    2102
    1946    1944    2102    2743    2747    2748    2897    2747    2898
    2743    2747    2898    2748    2747    2897    2743    2747    2897
    2748    2747    2898    1938    1940    2100    1938    1940    1939
    1939    1940    2100    2740    2742    2741    2740    2742    2743
    2741    2742    2743    2736    2739    2889    2740    2739    2889
    2736    2739    2740    1935    1937    2098    1936    1937    2098
    1935    1937    1936    1624    1625    1780    1623    1625    1624
    1623    1625    1780    1611    1612    1618    1613    1612    1618
    1611    1612    1613    1942    1947    2105    1613    1620    1621
    1613    1620    1776    1621    1620    1776    1612    1618    1622
    1612    1618    1619    1619    1618    1622     527     526     530
     520     526     527     520     526     530     519     520     526
     519     520     521     521     520     526     672     508     673
     509     508     672     504     508     509     504     508     672
     509     508     673     504     508     673     520     521     528
     520     521     523     523     521     528    1615    1614    1771
    1610    1614    1615    1610    1614    1771     521     523     680
     522     523     680     521     523     522     517     519     518
     517     519     520     518     519     520     511     512     676
     510     512     676     510     512     511     515     518     519
     515     518     522     519     518     522    1613    1615    1614
    1613    1615    1772    1614    1615    1772     511     524     569
     515     514     677     510     514     515     510     514     677
     513     511     524     512     511     524     512     511     513
     682     525     683     516     525     682     516     525     681
     681     525     683     516     525     683     681     525     682
    1615    1613    1620    1612    1613    1620    1612    1613    1615
     518     522     679     523     522     679     518     522     523
     512     510     514     509     510     512     509     510     514
     514     515     518     513     515     514     513     515     518
     508     509     510     510     509     675     508     509     674
     510     509     674     674     509     675     508     509     675
     513     516     525     513     516     517     517     516     525
     515     513     516     511     513     516     511     513     515
     516     517     519     516     517     678     519     517     678
    1194    1193    1195    1195    1193    1200    1194    1193    1200
    1197    1195    1365    1193    1195    1365    1193    1195    1197
    2316    2315    2317    2473    2315    2474    2317    2315    2473
    2316    2315    2474    2317    2315    2474    2316    2315    2473
    2315    2317    2318    2315    2317    2476    2318    2317    2476
    2314    2318    2477    2317    2318    2477    2314    2318    2317
    1221    1222    1224    1221    1222    1226    1224    1222    1226
    1222    1224    1383    1222    1224    1223    1223    1224    1383
    1222    1221    1380    1197    1221    1222    1222    1221    1379
    1197    1221    1380    1197    1221    1379    1379    1221    1380
    1196    1197    1221    1195    1197    1221    1195    1197    1196
    2314    2316    2315    2315    2316    2475    2314    2316    2475
    1193    1200    1203    1199    1200    1203    1193    1200    1199
    2260    2262    2275    2260    2262    2261    2261    2262    2275
    2313    2314    2316    2313    2314    2318    2316    2314    2318
    1194    1198    1199    1192    1194    1198    1192    1194    1193
    1193    1194    1198    2263    2265    2264    2263    2265    2444
    2264    2265    2444    2262    2275    2452    2263    2261    2266
    2262    2261    2266    2262    2261    2263    1200    1203    1204
    1200    1203    1367    1204    1203    1367    2261    2263    2268
    2261    2263    2265    2265    2263    2268     501     502     662
     459     502     662     501     502     663     459     502     501
     662     502     663     459     502     663    2289    2287    2457
    2285    2287    2289    2285    2287    2457     668     506     669
     501     506     669     505     506     669     501     506     668
     501     506     505     505     506     668    1298    1300    1450
    1302    1300    1450    1298    1300    1302    2305    2309    2310
    2310    2309    2467    2305    2309    2467    1192    1196    1197
    1197    1196    1220    1192    1196    1220    1222    1226    1225
    1222    1226    1385    1225    1226    1385    2296    2298    2299
    2292    2295    2459    2296    2295    2459    2292    2295    2296
    2287    2285    2292    2286    2285    2292    2286    2285    2287
    2299    2303    2304    2304    2303    2463    2299    2303    2463
    1184    1186    1185    1185    1186    1361    1184    1186    1361
    2306    2307    2465    2305    2307    2465    2305    2307    2306
    1185    1190    1191    1186    1184    1188    1165    1184    1186
    1165    1184    1188    2294    2296    2295    2295    2296    2298
    2294    2296    2298    2302    2304    2464    2303    2304    2464
    2302    2304    2303    2302    2300    2461    2301    2300    2302
    2301    2300    2461    1300    1302    1301    1301    1302    1452
    1300    1302    1452    1186    1185    1190    1186    1185    1187
    1187    1185    1190    1196    1220    1378    2299    2301    2462
    2300    2301    2462    2299    2301    2300    1194    1192    1196
    1191    1192    1194    1191    1192    1196    2301    2299    2303
    2298    2299    2301    2298    2299    2303    2304    2302    2305
    2300    2302    2304    2300    2302    2305    1192    1191    1364
    1363    1191    1364    1190    1191    1364    1190    1191    1192
    1190    1191    1363    1192    1191    1363      53      61     249
      53      61      62      53      61     248     248      61     249
      62      61     248      62      61     249    2307    2305    2309
    2302    2305    2307    2302    2305    2309    2285    2292    2291
    2285    2292    2295    2291    2292    2295    1160    1165    1184
    1189    1188    1362    1184    1188    1189    1184    1188    1362
    1148    1150    1335    1148    1150    1334    1151    1150    1335
    1148    1150    1151    1334    1150    1335    1151    1150    1334
    1149    1148    1150    1149    1148    1333    1150    1148    1333
    1340    1153    1341    1154    1153    1341    1154    1153    1340
    1145    1153    1340    1145    1153    1341    1145    1153    1154
    1146    1147    1151    1149    1147    1151    1146    1147    1149
    1141    1143    1145    1145    1143    1146    1141    1143    1146
    1142    1141    1143    1142    1141    1331    1143    1141    1331
    1143    1146    1147    1144    1145    1153    1143    1145    1153
    1143    1145    1144    1148    1149    1152    1147    1149    1148
    1147    1149    1152    1338    1152    1339    1149    1152    1339
    1149    1152    1338    1337    1152    1339    1149    1152    1337
    1337    1152    1338    1147    1151    1150    1147    1151    1336
    1150    1151    1336    1139    1142    1141    1139    1142    1332
    1141    1142    1332    1139    1144    1145    1139    1144    1140
    1140    1144    1145    1921    1923    1925    1921    1923    2093
    1925    1923    2093    1160    1159    1344    1155    1159    1344
    1155    1159    1160    1155    1154    1342    1342    1154    1343
    1153    1154    1342    1153    1154    1155    1153    1154    1343
    1155    1154    1343    1158    1160    1165    1159    1160    1165
    1158    1160    1159    1154    1155    1159    1157    1155    1159
    1154    1155    1157    2308    2310    2468    2308    2310    2309
    2309    2310    2468    1156    1158    1160    1922    1921    1928
    1922    1921    1923    1923    1921    1928    1934    1935    1937
    1934    1935    1939    1937    1935    1939    1923    1925    1924
    1923    1925    1949    1924    1925    1949    1142    1139    1144
    1135    1139    1142    1135    1139    1144    1935    1939    1940
    1940    1939    2099    1935    1939    2099    2268    2271    2272
    2268    2271    2274    2272    2271    2274    1932    1930    1933
    1929    1930    1933    1929    1930    1932    1927    1929    1930
    1927    1929    2094    1930    1929    2094    2449    2274    2451
    2271    2274    2449    2449    2274    2450    2271    2274    2451
    2450    2274    2451    2271    2274    2450    1928    1931    2095
    1932    1931    2095    1928    1931    1932    1930    1933    2096
    2266    2267    2268    2266    2267    2269    2268    2267    2269
    1932    1934    1935    1919    1920    1924    1922    1920    1924
    1919    1920    1922    2261    2266    2445    2267    2266    2445
    2261    2266    2267    1274    1280    1281    1274    1280    1283
    1281    1280    1283    1930    1932    1931    1931    1932    1934
    1930    1932    1934    2270    2273    2448    2267    2268    2271
    2263    2268    2267    2263    2268    2271    1928    1927    1929
    1926    1927    1929    1926    1927    1928    1921    1928    1927
    1921    1928    1931    1927    1928    1931    1920    1922    1926
    1920    1922    1921    1921    1922    1926    1922    1926    1927
    1272    1271    1423    1267    1271    1423    1267    1271    1272
    1272    1274    1280    1272    1274    1273    1273    1274    1280
    1274    1272    1424    1271    1272    1424    1271    1272    1274
    2272    2270    2273    2269    2270    2273    2269    2270    2272
    1284    1283    1433    1280    1283    1284    1280    1283    1433
    2271    2272    2447    2270    2272    2271    2270    2272    2447
    2267    2269    2270    2267    2269    2446    2270    2269    2446
    1266    1267    1271    1265    1267    1271    1265    1267    1266
    1908    1907    1910    1904    1907    1908    1904    1907    1910
    1898    1897    1902    1899    1897    1902    1898    1897    1899
    1897    1902    1903    1897    1902    2081    1903    1902    2081
    1897    1899    1904    1897    1899    1901    1901    1899    1904
    1903    1904    1907    1899    1904    1907    1899    1904    1903
    1899    1901    1900    1899    1901    2080    1900    1901    2080
    1902    1903    1905    1904    1903    1905    1902    1903    1904
    1896    1898    1897    1897    1898    1911    1896    1898    1911
    1895    1896    1898    1895    1896    1900    1898    1896    1900
    1901    1900    2079    1896    1900    1901    1896    1900    2079
      41      46     238    1907    1908    2083    1906    1908    1907
    1906    1908    2083    1898    1911    2088     234      39     236
      26      39     235     234      39     235      26      39     234
      26      39     236     235      39     236    1884    1894    1895
      42      41      46      42      41      43      43      41      46
      41      42     237      40      42     237      40      42      41
      45      43      47      41      43      45      41      43      47
    1896    1895    2077    1894    1895    2077    2077    1895    2078
    1894    1895    1896    1896    1895    2078    1894    1895    2078
      50      47      52      43      47      50      43      47      52
    1209    1208    1210    1209    1208    1369    1210    1208    1369
    1207    1209    1208    1208    1209    1370    1207    1209    1370
    1906    1905    2082    1903    1905    1906    1903    1905    2082
    1905    1906    1908    1905    1906    1909    1908    1906    1909
      49      50     240      47      50     240      47      50      49
    2086    1910    2087    2085    1910    2086    2085    1910    2087
    1907    1910    2085    1907    1910    2087    1907    1910    2086
      26      27      35      29      27      35      26      27      29
    1212    1210    1213    1208    1210    1212    1208    1210    1213
      42      40      44      35      40      42      35      40      44
    2307    2306    2308    2308    2306    2311    2307    2306    2311
    2616    2621    2640      95      97      96      95      97     135
      96      97     135      65      69     253     254      69     255
     253      69     254      65      69     255      65      69     254
     253      69     255      75      76      78      75      76      80
      78      76      80      80      81     260      79      81      80
      79      81     260      27      35      40      51      53      61
      51      53      52      52      53      61      63      67      68
      63      67     252      68      67     252      64      74      75
      44      70      72      71      70      72      44      70      71
      43      45      48      43      45      44      44      45      48
      81      80     259      76      80      81      76      80     259
     257      75     258      76      75     258      76      75     257
      74      75     257      74      75      76      74      75     258
      45      48      52      47      52      53      47      52      48
      48      52      53      65      64      66      65      64      74
      66      64      74      45      44      70      40      44      70
      40      44      45      70      72     256      62      63      65
      62      63      67      65      63      67      66      68      67
      66      68      73      67      68      73    2607    2606    2790
    2604    2606    2790    2604    2606    2607    2607    2606    2791
    2604    2606    2791    2790    2606    2791      64      66      68
      97      96     270      92      96      97      92      96     270
      64      65      69      63      65      69      63      65      64
     250      62     251      61      62     251      61      62     250
      61      62      63      63      62     251      63      62     250
      78      91     268      78      77      79      79      77      82
      78      77      82      83      82     261      77      82      83
      77      82     261    1949    1950    1952    1949    1950    1954
    1952    1950    1954    1951    1953    1954    1954    1953    2112
    1951    1953    2112    1953    1954    2113    1950    1954    2113
    1950    1954    1953    1950    1952    1951    1950    1952    2111
    1951    1952    2111    1953    1951    2110    1952    1951    2109
    1952    1951    2110    1952    1951    1953    1953    1951    2109
    2109    1951    2110      76      78      91      77      78      91
      76      78      77      77      79      81      81      79      84
      77      79      84    1345    1161    1346    1346    1161    1347
    1157    1161    1346    1157    1161    1345    1157    1161    1347
    1345    1161    1347    1292    1295    1448    1925    1924    1948
    1920    1924    1948    1920    1924    1925    2306    2308    2466
    2310    2308    2466    2306    2308    2310    1155    1157    1161
    1155    1157    1156    1156    1157    1161    1925    1949    1950
    2107    1949    2108    1950    1949    2108    1925    1949    2108
    1950    1949    2107    1925    1949    2107    1157    1156    1166
    1157    1156    1158    1158    1156    1166      82      83      84
      84      83      85      82      83      85    1293    1292    1295
    1291    1292    1443    1293    1292    1443    1295    1292    1443
    1291    1292    1293    1291    1292    1295    1292    1291    1441
    1287    1291    1292    1441    1291    1442    1287    1291    1442
    1287    1291    1441    1292    1291    1442      79      84      87
      83      84      87      79      84      83    1292    1293    1445
    1292    1293    1444    1444    1293    1445    1294    1293    1444
    1294    1293    1445    1292    1293    1294    1214    1219    1377
    1883    1887    1888    1888    1887    2072    1883    1887    2072
    1214    1215    1373    1213    1215    1373    1213    1215    1214
    1288    1294    1293    1293    1294    1447    1446    1294    1447
    1288    1294    1447    1293    1294    1446    1288    1294    1446
    1280    1281    1285    1280    1281    1282    1282    1281    1285
    2672    2674    2832    2673    2674    2832    2672    2674    2673
    1886    1884    1894    1885    1884    1886    1885    1884    1894
    2671    2669    2673    2666    2669    2671    2666    2669    2673
    1287    1288    1294    1287    1288    1289    1289    1288    1436
    1289    1288    1294    1294    1288    1436    1287    1288    1436
    1210    1212    1211    1211    1212    1372    1210    1212    1372
    1289    1290    1439    1284    1290    1439    1289    1290    1440
    1284    1290    1440    1439    1290    1440    1284    1290    1289
    1210    1213    1215    1210    1213    1217    1215    1213    1217
    1214    1216    1374    1218    1216    1374    1214    1216    1218
    1288    1289    1437    1437    1289    1438    1290    1289    1437
    1288    1289    1290    1290    1289    1438    1288    1289    1438
    1886    1888    1893    1887    1888    1893    1886    1888    1887
    2670    2672    2674    2670    2672    2830    2674    2672    2830
    1281    1285    1286    1286    1285    1434    1281    1285    1434
    1286    1287    1435    1288    1287    1435    1286    1287    1291
    1288    1287    1291    1291    1287    1435    1286    1287    1288
    1914    1913    1918    1914    1913    1915    1915    1913    1918
    1884    1886    1888    1912    1914    1913    1912    1914    2089
    1913    1914    2089    1215    1214    1219    1215    1214    1216
    1216    1214    1219    2669    2673    2831    2674    2673    2831
    2669    2673    2674    1283    1284    1290    1286    1284    1290
    1283    1284    1286    1218    1217    1375    1213    1217    1375
    1213    1217    1218    1216    1218    1217    1216    1218    1376
    1217    1218    1376    1913    1918    1919    1284    1286    1287
    1284    1286    1285    1285    1286    1287      22      21      23
      22      21      26      23      21      26    3034    3035    3193
    3033    3035    3034    3033    3035    3193    3035    3033    3037
    3030    3033    3035    3030    3033    3037    3028    3030    3033
    3028    3030    3032    3032    3030    3033    3029    3028    3030
    3030    3028    3189    3029    3028    3189    3027    3029    3190
    3028    3029    3190    3027    3029    3028      25      24     223
      20      24     223      20      24      25      20      22      38
      20      22      21      21      22      38      22      20      24
      19      20      22      19      20      24    3035    3034    3039
    3035    3034    3036    3036    3034    3039       7       8     216
      10       8     216       7       8      10    3030    3032    3192
    3031    3032    3192    3030    3032    3031     213     211     361
     212     211     361     212     211     213      25      23      28
      21      23      28      21      23      25    3033    3037    3038
    3038    3037    3195    3033    3037    3195      24      25     224
      23      25     224      23      25      24    3034    3039    3197
      22      38     233      21      26      39      21      26      27
      27      26      39      20      19     222      11      19      20
      20      19     221     221      19     222      11      19     222
      11      19     221    3034    3036    3194    3034    3036    3038
    3038    3036    3194    3032    3031    3191    3027    3031    3191
    3027    3031    3032    3037    3038    3196    3036    3038    3037
    3036    3038    3196    1885    1889    2073    2074    1889    2075
    1885    1889    2075    1885    1889    2074    2073    1889    2075
    2073    1889    2074    3029    3027    3031    3026    3027    3031
    3026    3027    3029     206     213     211     211     213     364
     206     213     364       9      10      11       8      10       9
       8      10      11     145     146     150     148     146     150
     145     146     148    2614    2616    2615    2615    2616    2621
    2614    2616    2621     141     142     304     137     142     141
     141     142     305     137     142     305     137     142     304
     304     142     305    2643    2641    2646    2642    2641    2646
    2642    2641    2643      31      32      34      31      32      33
      33      32      34     136     139     300     136     139     143
     143     139     300     140     139     143     136     139     140
     140     139     300      28      30     225      28      30     226
     225      30     226      31      30     226      28      30      31
      31      30     225     228      33     229      29      33     228
      32      33     229      29      33      32      32      33     228
      29      33     229     306     143     307     139     143     307
      31     143     307     139     143     306      31     143     306
      31     143     139     146     145     311     146     145     310
     144     145     146     310     145     311     144     145     310
     144     145     311    2626    2639    2816     135     136     296
     139     136     296     137     136     139     135     136     137
     137     136     296     135     136     139     136     135     295
      97     135     295      97     135     294     294     135     295
     136     135     294      97     135     136      30      31     143
      32      31     143      30      31      32      32      31     227
     143      31     227      30      31     227    2621    2640    2642
    2621    2640    2644    2642    2640    2644     140     141     142
     142     141     303     142     141     302     140     141     303
     302     141     303     140     141     302     136     137     138
     138     137     297     136     137     142     142     137     297
     136     137     297     138     137     142     141     140     301
     139     140     141     144     140     301     141     140     144
     139     140     301     139     140     144     145     144     308
     140     144     145     140     144     308     145     144     309
     140     144     309     308     144     309      28      29      33
      27      29      33      27      29      28      23      28      30
      29      28      30      23      28      29     146     150     151
     146     150     313     151     150     313    2640    2642    2641
    2640    2642    2817    2641    2642    2817    2650    2649    2656
    2650    2649    2651    2651    2649    2656    2653    2652    2676
    2648    2652    2653    2648    2652    2676    2649    2651    2653
    2649    2651    2821    2653    2651    2821    2651    2653    2677
    2651    2653    2652    2652    2653    2677    2650    2648    2652
    2647    2648    2650    2647    2648    2652    2648    2650    2654
    2648    2650    2649    2649    2650    2654    2649    2656    2655
    2649    2656    2659    2655    2656    2659    2656    2655    2657
    2654    2655    2656    2654    2655    2657    2650    2654    2655
     110     113     276    2656    2659    2823    2660    2659    2823
    2656    2659    2660     112     110     113     109     110     113
     109     110     112    2641    2646    2647    2657    2658    2660
    2660    2658    2661    2657    2658    2661    2655    2657    2822
    2658    2657    2822    2655    2657    2658    2643    2686    2847
    2643    2686    2846    2685    2686    2846    2846    2686    2847
    2685    2686    2847    2643    2686    2685     107     109     274
     110     109     274     107     109     110    2648    2647    2819
    2646    2647    2820    2646    2647    2819    2819    2647    2820
    2646    2647    2648    2648    2647    2820    2653    2677    2835
    2653    2677    2678    2835    2677    2836    2678    2677    2836
    2678    2677    2835    2653    2677    2836    2659    2660    2662
    2658    2660    2659    2658    2660    2662    2677    2678    2680
    2677    2678    2682    2680    2678    2682    2645    2643    2686
    2641    2643    2686    2641    2643    2645    2652    2676    2834
    2658    2661    2824    2663    2667    2668    2668    2667    2827
    2663    2667    2827    2669    2671    2670    2669    2671    2829
    2670    2671    2829     700     548     701     542     548     701
     700     548     702     701     548     702     542     548     700
     542     548     702    2668    2666    2669    2664    2666    2669
    2664    2666    2668    2665    2663    2667    2662    2663    2665
    2662    2663    2667     545     549     551     551     549     554
     545     549     554    2666    2668    2667    2666    2668    2828
    2667    2668    2828     550     568     721    3482    3489    3640
    3487    3489    3640    3482    3489    3487     993     818     995
     993     818     994     815     818     994     994     818     995
     815     818     993     815     818     995    3638    3488    3639
    3483    3488    3487    3487    3488    3639    3483    3488    3638
    3487    3488    3638    3483    3488    3639    2663    2665    2664
    2664    2665    2826    2663    2665    2826     549     554     704
     549     554     553     553     554     704    2660    2662    2663
     540     550     568     540     550     551     551     550     568
    2666    2664    2825    2665    2664    2666    2665    2664    2825
    1881    1882    2070    1881    1882    1883    1883    1882    2070
    2070    1882    2071    1881    1882    2071    1883    1882    2071
     549     551     703     549     551     550     550     551     703
    1885    1883    1887    1882    1883    1885    1882    1883    1887
    3489    3487    3637    3488    3487    3489    3488    3487    3637
     816     815     818     812     815     816     812     815     818
    1883    1885    1889    1883    1885    1884    1884    1885    1889
    3017    3016    3040    3012    3016    3040    3012    3016    3017
    3013    3015    3185    3017    3015    3185    3013    3015    3017
    3199    3041    3200    3042    3041    3199    3017    3041    3042
    3017    3041    3199    3042    3041    3200    3017    3041    3200
    3044    3042    3046    3041    3042    3044    3041    3042    3046
    3015    3017    3041    3015    3017    3016    3016    3017    3041
    3015    3013    3020    3014    3013    3020    3014    3013    3015
    3043    3044    3203    3042    3044    3043    3042    3044    3203
    3042    3046    3045    3045    3046    3205    3042    3046    3205
    3016    3040    3198    3043    3045    3046    3046    3045    3204
    3043    3045    3204       3      18     220       3       2       7
       3       2       4       4       2       7    2229    2227    2231
    2225    2227    2229    2225    2227    2231       2       3      18
       1       3      18       1       3       2       3       1     214
       5       1     214       3       1       5    3044    3043    3202
    3201    3043    3202    3044    3043    3201    3045    3043    3202
    3045    3043    3201    3044    3043    3045    2225    2230    2422
    2234    2231    2236    2227    2231    2234    2227    2231    2236
       7      17     219    3011    3012    3014    3011    3012    3016
    3014    3012    3016    3019    3020    3023    3013    3020    3019
    3013    3020    3023    3012    3014    3018    3012    3014    3013
    3013    3014    3018       2       7      17       8       7      17
       2       7       8    2240    2242    2426    2240    2242    2243
    2240    2242    2427    2426    2242    2427    2243    2242    2427
    2243    2242    2426    2229    2232    2236    2226    2225    2230
    2226    2225    2227    2227    2225    2230    2239    2243    2428
    2239    2243    2242    2242    2243    2428    3024    3023    3187
    3020    3023    3024    3020    3023    3187    2233    2234    2424
    2231    2234    2233    2231    2234    2424    2231    2236    2237
    2231    2236    2232    2232    2236    2237     208     210     209
     209     210     360     208     210     360     174     176     186
     174     176     178     178     176     186     186     204     357
     181     185     190     181     185     187     187     185     190
     174     175     179     173     175     179     173     175     174
     148     147     160     148     147     149     149     147     160
     208     206     213     207     206     213     207     206     208
     206     208     358     206     208     210     210     208     358
     186     187     339     185     187     186     185     187     339
     155     154     158     151     154     155     151     154     158
     146     148     147     146     148     312     147     148     312
     150     151     154     149     151     150     149     151     154
     176     186     187     187     186     204     176     186     204
     206     207     212     205     207     206     205     207     212
     175     174     181     175     174     176     176     174     181
     317     161     319     152     161     318     317     161     318
     318     161     319     152     161     317     152     161     319
     151     149     152     147     149     151     147     149     152
     362     212     363     211     212     363     207     212     362
     211     212     362     207     212     363     207     212     211
     153     152     161     149     152     161     149     152     153
    2990    2989    2994    2990    2989    2991    2991    2989    2994
    2989    2994    3173    2995    2994    3173    2989    2994    2995
     185     190     340     185     190     189     189     190     340
     182     181     185     174     181     182     174     181     185
     147     160     205     160     205     207     160     205     209
     207     205     209     205     209     359     210     209     359
     205     209     210     405     410     602    2733    2738    2737
    2737    2738    2888    2733    2738    2888    2728    2730    2736
    2728    2730    2729    2729    2730    2736    2735    2733    2738
    2729    2733    2738    2729    2733    2735    2734    2735    2887
    2733    2735    2734    2733    2735    2887    2999    3000    3175
    2998    3000    2999    2998    3000    3175    3000    2998    3001
    2997    2998    3001    2997    2998    3000    2722    2729    2730
    2730    2729    2733    2722    2729    2733    2724    2734    2752
    2724    2734    2735    2735    2734    2752    2736    2737    2741
    2738    2737    2741    2736    2737    2738     178     184     338
     336     184     337     336     184     338     178     184     337
     337     184     338     178     184     336     178     177     183
     173     177     183     173     177     178    2737    2741    2742
    2742    2741    2890    2737    2741    2890    2730    2736    2739
    2737    2736    2739    2730    2736    2737    2727    2728    2880
    2727    2728    2730    2730    2728    2880     175     173     177
     172     173     175     172     173     177     177     178     184
     176     178     184     176     178     177    3000    2999    3002
    2996    2999    3000    2996    2999    3002    2995    2996    2999
    2991    2996    2995    2991    2996    2999    2999    3002    3178
    3177    3002    3179    3178    3002    3179    2999    3002    3177
    2999    3002    3179    3177    3002    3178    2998    3001    3176
    2994    2995    2996    2994    2995    2997    2996    2995    2997
    2995    2997    2998    2995    2997    3174    2998    2997    3174
    2724    2722    2729    2723    2722    2729    2723    2722    2724
    2722    2724    2734    2722    2724    2726    2726    2724    2734
    2734    2752    2905     334     183     335     177     183     334
     177     183     333     177     183     335     333     183     334
     333     183     335    2678    2680    2679    2678    2680    2839
    2679    2680    2839    2723    2727    2879    2728    2727    2879
    2723    2727    2728    2721    2723    2727    2721    2723    2722
    2722    2723    2727    2724    2726    2732    2724    2726    2725
    2725    2726    2732     171     172     330     173     172     330
     171     172     329     173     172     329     329     172     330
     171     172     173     534     535     536     536     535     692
     534     535     692     691     535     692     536     535     691
     534     535     691     542     540     550     538     540     542
     538     540     550    2241    2240    2425    2241    2240    2242
    2242    2240    2425     815     816     991     814     816     815
     814     816     991    2429    2244    2431    2429    2244    2430
    2241    2244    2429    2241    2244    2431    2241    2244    2430
    2430    2244    2431     698     547     699     541     547     698
     541     547     697     541     547     699     697     547     698
     697     547     699     530     531     533     530     531     534
     533     531     534     531     533     532     532     533     688
     531     533     688    2726    2732    2884    2726    2732    2886
    2885    2732    2886    2884    2732    2885    2884    2732    2886
    2726    2732    2885    2726    2725    2731    2721    2725    2731
    2721    2725    2726     531     530     686     526     530     686
     526     530     531    2237    2235    2238    2233    2235    2237
    2233    2235    2238     539     543     695     544     543     695
     539     543     544     543     544     696     546     544     696
     543     544     546    2720    2721    2723    2720    2721    2725
    2723    2721    2725    2241    2239    2243    2238    2239    2241
    2238    2239    2243     539     538     545     540     538     545
     539     538     540    2234    2233    2423    2235    2233    2423
    2234    2233    2235     552     553     557     554     553     557
     552     553     554    2246    2245    2433    2237    2245    2433
    2237    2245    2246    2432    2245    2433    2237    2245    2432
    2246    2245    2432     538     545     549     546     545     549
     538     545     546     542     541     547     537     541     547
     537     541     542    2235    2237    2245    2235    2237    2236
    2236    2237    2245     536     537     539     536     537     541
     539     537     541    2235    2238    2239     544     546     552
     544     546     545     545     546     552     537     539     543
     537     539     538     538     539     543     531     534     689
     689     534     690     535     534     690     531     534     535
     535     534     689     531     534     690     553     552     555
     546     552     553     546     552     555     535     536     694
     535     536     693     537     536     693     693     536     694
     537     536     694     535     536     537    2240    2241    2244
    2239    2241    2240    2239    2241    2244     541     542     548
     540     542     548     540     542     541

   11170 !NPHI: dihedrals
     623     444     445     624     440     444     445     624
     440     444     445     443     389     387     392     394
     385     387     392     394     394     392     393     397
     387     392     393     391     394     392     393     391
     428     438     439     440     428     438     439     622
     428     438     439     621     438     439     440     442
     438     439     440     444     622     439     440     444
     622     439     440     442     621     439     440     444
     621     439     440     442     439     440     442     441
     444     440     442     455     442     440     444     445
     442     440     444     623     439     440     444     445
     439     440     444     623     439     440     442     455
     623     444     445     443     448     443     445     444
     409     408     434     436     409     408     434     435
     404     408     434     435     404     408     434     436
     435     434     436     620     408     434     436     620
    1583    1578    1580    1738    1738    1580    1582    1740
    1578    1580    1582    1581    1578    1580    1582    1740
    1583    1578    1580    1582     390     391     393     397
     387     392     393     397     399     391     393     397
     399     391     393     392     446     441     443     448
     445     443     448     451     441     443     445     444
     441     443     445     624     446     441     443     445
     448     443     445     624     441     443     448     447
     441     443     448     451     445     443     448     447
    1579    1577    1581    1582    1574    1577    1581    1739
    1574    1577    1579    1578    1581    1577    1579    1737
    1574    1577    1579    1737    1574    1577    1581    1582
    1579    1577    1581    1739     393     392     394     589
     393     392     394     590     387     392     394     589
     387     392     394     395     393     392     394     395
     387     392     394     590     392     394     395     591
     389     387     392     393     390     385     387     389
     385     387     392     393     385     387     389     588
     385     387     389     388     392     387     389     588
    1579    1578    1580    1582    1580    1578    1579    1737
    1579    1578    1583    1741    1579    1578    1580    1738
    1580    1578    1583    1741     430     428     438     439
     429     428     430     432     429     428     438     439
     438     428     430     432    1577    1581    1582    1580
    1577    1581    1582    1740    1739    1581    1582    1740
     406     404     408     434     399     404     408     409
     399     404     408     434     404     408     409     407
     404     408     409     412     434     408     409     407
     434     408     409     412    1739    1581    1582    1580
    1738    1580    1582    1581     446     441     442     440
     441     442     455     632     444     440     442     441
     440     442     455     632     443     441     442     440
     442     441     443     445     443     441     442     455
     446     441     442     455     443     441     446     447
     443     441     446     625     442     441     446     447
     442     441     446     625     442     441     443     448
    1576    1574    1577    1579    1576    1574    1577    1581
    1572    1574    1577    1579    1572    1574    1577    1581
    1572    1574    1576    1736    1733    1572    1574    1577
    1577    1574    1576    1736    1733    1572    1574    1576
    1572    1574    1576    1575     437     456     460     461
     437     456     460     634     456     460     461     459
     457     459     461     499     456     460     461     499
     634     460     461     499     502     459     461     499
     634     460     461     459     587     388     389     387
     392     387     389     388    1583    1578    1579    1737
    1583    1578    1579    1577    1581    1577    1579    1578
    1580    1578    1579    1577     416     411     414     413
     603     413     414     411     415     413     414     411
     413     415     418     419     417     415     418     419
     413     415     417     416     603     413     415     417
     431     427     429     433     430     428     429     433
     430     428     429     427     438     428     429     433
     438     428     429     427     431     427     429     428
     415     418     419     421     415     418     419     423
     421     419     423     608     426     427     431     616
     429     427     431     616     426     427     431     432
     429     427     431     432     426     427     429     433
     426     427     429     428     428     429     433     619
     428     429     433     618     427     429     433     617
     427     429     433     619     428     429     433     617
     427     429     433     618     432     437     456     458
     432     437     456     460     458     456     460     461
     460     456     458     633     458     456     460     634
    1240    1238    1242    1405    1242    1238    1240    1404
    1237    1238    1240    1404    1237    1238    1242    1243
    1240    1238    1242    1243    1237    1238    1242    1405
    1237    1238    1240    1239     425     426     427     431
     612     425     426     427     613     425     426     427
     425     426     427     429     614     426     427     431
     615     426     427     431     614     426     427     429
     615     426     427     429     413     415     417     425
     418     415     417     425     411     416     417     425
     412     416     417     415     412     416     417     425
     418     415     417     416     409     412     416     411
     409     412     416     417     411     416     417     415
    1239    1252    1297    1299    1239    1252    1297    1301
    1299    1297    1301    1451    1299    1297    1301    1302
    1236    1237    1238    1240    1236    1237    1238    1242
    1401    1236    1237    1238    1400    1236    1237    1238
    1402    1237    1238    1240    1402    1237    1238    1242
    1403    1237    1238    1242    1403    1237    1238    1240
     416     417     425     613     416     417     425     426
     416     417     425     612     415     417     425     613
     415     417     425     426     415     417     425     612
     613     425     426     615     417     425     426     615
     613     425     426     614     417     425     426     614
     612     425     426     615     417     425     426     427
     612     425     426     614     408     409     412     416
     407     409     412     416     411     407     409     408
     410     405     407     411     409     407     411     414
     410     405     407     409     409     407     411     416
     411     407     409     412     405     407     411     414
     405     407     411     416     405     407     409     412
     405     407     409     408     427     431     432     437
     427     431     432     430     616     431     432     430
     616     431     432     437     418     419     421     420
     418     419     421     424     423     419     421     424
     605     420     421     419     605     420     421     424
     423     419     421     420     416     411     414     604
     407     411     416     417     407     411     414     604
     407     411     416     412     414     411     416     417
     407     411     414     413     414     411     416     412
     414     413     415     417     603     413     414     604
     414     413     415     418     415     413     414     604
     603     413     415     418    1252    1239    1240    1404
    1242    1238    1240    1239    1252    1239    1240    1238
    1241    1239    1240    1238     428     430     432     437
     428     430     432     431     430     432     437     456
     431     432     437     456    1256    1249    1251    1250
    1407    1250    1251    1249    1244    1245    1247    1248
    1244    1245    1247    1246    1246    1247    1248    1249
    1245    1247    1248    1254    1250    1246    1247    1248
    1245    1247    1248    1249    1406    1245    1247    1246
    1246    1247    1248    1254    1406    1245    1247    1248
    1250    1246    1247    1245    1249    1248    1254    1258
    1247    1248    1249    1256    1249    1248    1254    1255
    1247    1248    1249    1251    1247    1248    1254    1255
    1254    1248    1249    1256    1247    1248    1254    1258
    1239    1241    1244    1253    1243    1241    1244    1253
    1241    1244    1245    1406    1253    1244    1245    1406
    1241    1244    1245    1247    1253    1244    1245    1247
    1248    1249    1256    1412    1254    1248    1249    1251
    1256    1249    1251    1408    1248    1249    1251    1408
    1248    1249    1256    1257    1251    1249    1256    1412
    1248    1249    1251    1250    1251    1249    1256    1257
    1243    1246    1247    1248    1247    1246    1250    1407
    1243    1246    1250    1251    1243    1246    1247    1245
    1247    1246    1250    1251    1243    1246    1250    1407
    1241    1243    1246    1250    1241    1243    1246    1247
    1242    1243    1246    1250    1242    1243    1246    1247
    1405    1242    1243    1241    1244    1241    1243    1242
    1405    1242    1243    1246    1239    1241    1243    1242
    1252    1239    1241    1244    1239    1241    1244    1245
    1244    1241    1243    1246    1252    1239    1241    1243
    1243    1241    1244    1245    1239    1241    1243    1246
    1246    1250    1251    1249    1407    1250    1251    1408
    1246    1250    1251    1408    1238    1242    1243    1241
    1238    1242    1243    1246     605     420     422     606
     421     420     422     607     605     420     422     607
     421     420     422     606     421     420     422     423
     607     422     423     608     606     422     423     608
     420     422     423     608     605     420     422     423
     607     422     423     419     420     422     423     419
     606     422     423     419     576     575     577     728
     725     575     577     728     576     575     577     570
    1254    1258    1259    1261    1248    1254    1255    1257
    1255    1254    1258    1259    1258    1254    1255    1260
    1248    1254    1258    1259    1248    1254    1255    1260
    1255    1254    1258    1414    1248    1254    1258    1414
     569     571     576     727     570     571     576     727
     569     571     576     726     570     571     576     726
     569     571     576     575     570     571     576     575
     577     575     576     726     577     575     576     727
     725     575     576     726     725     575     576     727
     577     575     576     571     725     575     576     571
     418     419     423     422     418     419     423     608
     421     419     423     422    1245    1244    1253    1410
    1241    1244    1253    1409    1241    1244    1253    1411
    1245    1244    1253    1409    1245    1244    1253    1411
    1241    1244    1253    1410    1240    1239    1252    1297
    1240    1239    1241    1244    1240    1239    1241    1243
    1241    1239    1252    1297    1241    1239    1240    1404
    1412    1256    1257    1413    1249    1256    1257    1413
    1249    1256    1257    1255     422     420     421     424
     422     420     421     419     572     570     577     575
     571     570     577     575     725     575     577     570
    1252    1297    1301    1302    1252    1297    1301    1451
    1297    1301    1302    1452    1451    1301    1302    1452
    1297    1301    1302    1300    1258    1259    1262    1417
    1261    1259    1262    1417    1258    1259    1262    1263
    1261    1259    1262    1418    1258    1259    1262    1418
    1261    1259    1262    1263    1259    1262    1263    1419
    1418    1262    1263    1420    1417    1262    1263    1419
    1418    1262    1263    1419    1417    1262    1263    1420
    1259    1262    1263    1420    1415    1260    1261    1416
    1255    1260    1261    1416    1255    1260    1261    1259
     524     569     571     570     524     569     571     576
     573     569     571     576     572     570     571     576
     577     570     571     576     572     570     571     569
     573     569     571     570    1415    1260    1261    1259
     447     448     451     454     443     448     451     454
     448     451     452     627     454     451     452     627
     448     451     452     450     454     451     452     450
     524     569     573     723     524     569     573     574
     569     573     574     572     723     573     574     724
     569     573     574     724     441     446     447     448
     441     446     447     449     448     447     449     450
     449     447     448     451     448     447     449     626
     625     446     447     448     625     446     447     449
    1573    1572    1574    1577    1573    1572    1574    1576
    1574    1572    1573    1734    1733    1572    1573    1734
    1257    1255    1260    1415    1254    1255    1260    1415
    1257    1255    1260    1261    1254    1255    1257    1413
    1254    1255    1257    1256    1254    1255    1260    1261
    1260    1255    1257    1413    1258    1254    1255    1257
     571     570     572     722     572     570     577     728
     571     570     577     728     571     570     572     574
     577     570     572     722     577     570     571     569
     577     570     572     574     384     388     389     387
     587     388     389     588     384     388     389     588
     376     378     400     595     377     378     400     595
     376     378     400     594     581     376     378     377
     377     378     400     594     379     377     378     376
     452     451     454     630     452     451     454     629
     452     451     454     631     448     451     454     629
     448     451     454     631     448     451     454     630
     722     572     574     724     570     572     574     724
     570     572     574     573     446     447     448     451
     446     447     448     443     447     448     451     452
     443     448     451     452     449     447     448     443
     626     449     450     452     449     450     453     628
     452     450     453     628     449     450     452     451
     449     450     452     627    1570    1571    1575    1576
    1570    1571    1575    1735    1571    1575    1576    1736
    1735    1575    1576    1736    1571    1575    1576    1574
     723     573     574     572     722     572     574     573
     453     450     452     627     453     450     452     451
     511     524     569     571     511     524     569     573
     571     569     573     723     571     569     573     574
    1577    1574    1576    1575    1735    1575    1576    1574
    1254    1258    1259    1262    1414    1258    1259    1261
    1414    1258    1259    1262    1258    1259    1261    1260
    1262    1259    1261    1416    1258    1259    1261    1416
    1262    1259    1261    1260    1412    1256    1257    1255
    1260    1255    1257    1256     466     465     472     471
     466     465     472     475     472     465     467     637
     466     465     467     469     466     465     467     637
     467     465     466     470     467     465     472     471
     467     465     472     475     472     465     466     470
     464     466     470     471     465     466     470     471
     468     464     466     465     472     465     466     464
     467     465     466     464     470     471     472     475
     470     471     472     465     465     472     475     476
     465     472     475     639     471     472     475     476
     471     472     475     639     473     471     472     465
     465     467     469     468     472     465     467     469
     466     470     471     473     466     470     471     472
     473     471     472     475     472     471     473     474
     472     471     473     638     470     471     473     474
     470     471     473     638     471     473     474     477
     471     473     474     476     638     473     474     477
     466     464     468     469     468     464     466     470
     463     464     468     469     463     464     466     470
     463     464     468     492     463     464     466     465
     466     464     468     492     457     462     463     636
     457     462     463     464     457     462     463     635
     462     463     464     466     462     463     464     468
     635     463     464     468     636     463     464     466
     635     463     464     466     636     463     464     468
     473     474     476     475     638     473     474     476
     476     474     477     640     473     474     477     640
     473     474     476     478     472     475     476     474
     472     475     476     478     639     475     476     478
     477     474     476     478     477     474     476     475
     475     476     478     479     474     476     478     479
     639     475     476     474    3397    3394    3396    3395
    3555    3395    3396    3394    1205    1202    1204    1206
    1203    1204    1206    1207    1202    1204    1206    1207
    1367    1203    1204    1202    1205    1202    1204    1203
    3403    3398    3399    3557    3403    3398    3399    3397
    3400    3398    3399    3397    3401    3397    3399    3398
    3390    3391    3395    3396    3390    3391    3395    3555
    3391    3395    3396    3394    3555    3395    3396    3556
    3391    3395    3396    3556    3394    3397    3401    3559
    3394    3397    3399    3398    3399    3397    3401    3559
    3401    3397    3399    3557    3394    3397    3399    3557
    3399    3397    3401    3402    3394    3397    3401    3402
    1198    1199    1201    1202    1198    1199    1201    1366
    1199    1201    1202    1205    1199    1201    1202    1204
    1366    1201    1202    1205    1204    1202    1205    1368
    1366    1201    1202    1204    1201    1202    1205    1368
    1201    1202    1204    1206    1201    1202    1204    1203
    3553    3392    3394    3397    3392    3394    3396    3556
    3553    3392    3394    3396    3397    3394    3396    3556
    3396    3394    3397    3399    3396    3394    3397    3401
    3392    3394    3397    3399    3392    3394    3397    3401
    3392    3394    3396    3395     464     468     469     467
     464     468     492     650     469     468     492     650
     458     457     462     463     459     457     458     633
     458     457     459     461     459     457     462     463
    1204    1206    1207    1209    1204    1206    1207    1211
    1209    1207    1211    1371    1211    1207    1209    1370
    1209    1207    1211    1212    3388    3390    3391    3393
    3388    3390    3391    3395    3395    3391    3393    3554
    3393    3391    3395    3555    3393    3391    3395    3396
     458     457     459     502     462     457     459     502
     457     459     461     460     462     457     459     461
     502     459     461     460    1194    1198    1199    1201
    1194    1198    1199    1200    1200    1199    1201    1366
    1201    1199    1200    1203    1200    1199    1201    1202
    1206    1207    1211    1371    1206    1207    1211    1212
    1207    1211    1212    1372    1207    1211    1212    1210
    1371    1211    1212    1372     465     467     469     493
     492     468     469     493     464     468     469     493
     637     467     469     493     492     468     469     467
     637     467     469     468     476     478     479     481
     476     478     479     483     481     479     483     484
     483     479     481     642     481     479     483     643
    3394    3392    3393    3554    3553    3392    3393    3554
    3393    3392    3394    3397    3393    3392    3394    3396
    3390    3391    3393    3392    3390    3391    3393    3554
    3395    3391    3393    3392    3553    3392    3393    3391
    3394    3392    3393    3391     500     501     506     669
     502     501     506     505     661     501     506     669
     500     501     506     668     661     501     506     668
     502     501     506     669     660     500     501     502
     502     501     506     668     506     501     502     663
     500     501     502     662     661     501     502     662
     500     501     506     505     506     501     502     662
     660     500     501     506     500     501     502     663
     661     501     502     663     500     501     502     459
     506     501     502     459     656     497     498     494
    3403    3398    3400    3558    3398    3400    3402    3401
    3398    3400    3402    3560    3403    3398    3400    3402
    3558    3400    3402    3560     437     456     458     457
     437     456     458     633     462     457     458     633
     462     457     458     456     459     457     458     456
     460     456     458     457     496     494     498     657
     493     494     496     655     493     494     498     497
     493     494     498     657     498     494     496     655
     496     494     498     497     493     494     496     495
    1228    1229    1230    1390    1388    1228    1229    1230
    1228    1229    1234    1396    1234    1229    1230    1390
    1388    1228    1229    1234    1389    1229    1230    1391
    1230    1229    1234    1233    1228    1229    1234    1397
    1234    1229    1230    1391    1389    1229    1230    1390
    1389    1229    1234    1396    1230    1229    1234    1396
    1228    1229    1234    1233    1389    1229    1234    1397
    1228    1229    1230    1391    1230    1229    1234    1397
    1234    1229    1230    1187    1228    1229    1230    1187
     653     495     497     656     654     495     497     656
     496     495     497     498     654     495     496     655
     497     495     496     655     496     495     497     656
     653     495     496     655     497     495     496     494
     653     495     496     494     654     495     496     494
     654     495     497     498     653     495     497     498
    1190    1185    1187    1230    1186    1185    1187    1230
    1185    1187    1189    1188    1190    1185    1187    1189
    1230    1187    1189    1188    3399    3398    3400    3402
    3400    3398    3403    3561    3399    3398    3400    3558
    3400    3398    3399    3557    3399    3398    3403    3561
     495     497     498     657     656     497     498     657
     495     497     498     494    1233    1232    1236    1401
    1393    1232    1236    1401    1231    1232    1233    1394
    1235    1231    1232    1233    1236    1232    1233    1395
    1233    1232    1236    1237    1236    1232    1233    1394
    1392    1231    1232    1236    1231    1232    1233    1234
    1231    1232    1236    1237    1393    1232    1233    1395
    1231    1232    1236    1401    1233    1232    1236    1400
    1393    1232    1236    1400    1392    1231    1232    1233
    1231    1232    1233    1395    1393    1232    1233    1394
    1231    1232    1236    1400    1236    1232    1233    1234
    1401    1236    1237    1403    1401    1236    1237    1402
    1232    1236    1237    1238    1400    1236    1237    1402
    1232    1236    1237    1402    1393    1232    1236    1237
    1400    1236    1237    1403    1232    1236    1237    1403
    1185    1187    1230    1229    1189    1187    1230    1229
    1185    1187    1230    1391    1185    1187    1230    1390
    1189    1187    1230    1390    1189    1187    1230    1391
    1389    1229    1230    1187     468     469     493     652
     467     469     493     494     468     469     493     651
     467     469     493     651     468     469     493     494
     467     469     493     652     469     493     494     496
     469     493     494     498     651     493     494     498
     652     493     494     496     651     493     494     496
     652     493     494     498    1185    1187    1189    1227
    1184    1188    1189    1227    1230    1187    1189    1227
    1362    1188    1189    1187    1362    1188    1189    1227
    1189    1227    1228    1229    1386    1227    1228    1388
    1189    1227    1228    1231    1387    1227    1228    1388
    1388    1228    1231    1392    1231    1228    1229    1234
    1229    1228    1231    1235    1227    1228    1231    1392
    1388    1228    1229    1389    1229    1228    1231    1232
    1231    1228    1229    1389    1386    1227    1228    1229
    1387    1227    1228    1231    1227    1228    1229    1230
    1227    1228    1229    1234    1387    1227    1228    1229
    1386    1227    1228    1231    1227    1228    1229    1389
    1229    1228    1231    1392    1227    1228    1231    1235
    1231    1228    1229    1230     498     494     496     495
    1188    1189    1227    1387    1187    1189    1227    1228
    1188    1189    1227    1386    1187    1189    1227    1386
    1187    1189    1227    1387    1188    1189    1227    1228
    1189    1227    1228    1388    1227    1228    1231    1232
    1228    1231    1232    1236    1228    1231    1235    1399
    1232    1231    1235    1399    1228    1231    1232    1233
    1232    1231    1235    1398    1392    1231    1235    1399
    1235    1231    1232    1236    1228    1231    1232    1393
    1388    1228    1231    1235    1392    1231    1232    1393
    1392    1231    1235    1398    1235    1231    1232    1393
    1228    1231    1235    1398    1388    1228    1231    1232
    1232    1231    1235    1123    1228    1231    1235    1123
    1395    1233    1234    1396    1232    1233    1234    1396
    1232    1233    1234    1397    1393    1232    1233    1234
    1394    1233    1234    1397    1395    1233    1234    1397
    1394    1233    1234    1396    1232    1233    1234    1229
    1395    1233    1234    1229    1394    1233    1234    1229
    1389    1229    1234    1233    1118    1119    1121    1125
    1115    1120    1121    1125    1127    1119    1121    1125
    1127    1119    1121    1120    1135    1133    1134    1329
    1134    1133    1135    1137    1135    1133    1138    1330
    1134    1133    1135    1139    1134    1133    1138    1330
    1127    1132    1134    1329    1127    1132    1134    1133
    1138    1133    1134    1329    1138    1133    1134    1132
    1135    1133    1134    1132    1136    1132    1134    1133
    1120    1121    1125    1321    1119    1121    1125    1321
    1120    1121    1125    1320    1120    1121    1125    1124
    1119    1121    1125    1320    1119    1121    1125    1124
    1123    1124    1125    1321    1126    1124    1125    1321
    1123    1124    1125    1320    1126    1124    1125    1320
    1126    1124    1125    1121    1123    1124    1125    1121
    1136    1137    1140    1144    1139    1135    1137    1136
    1135    1137    1140    1144    1119    1127    1132    1134
    1119    1127    1132    1136    1134    1132    1136    1137
    1136    1132    1134    1329    1127    1132    1136    1137
    1134    1132    1136    1162    1127    1132    1136    1162
    1132    1136    1137    1140    1132    1136    1137    1135
    1162    1136    1137    1140    1162    1136    1137    1135
    1118    1119    1127    1132    1118    1119    1121    1120
    1121    1119    1127    1132    1113    1115    1120    1122
    1117    1115    1120    1122    1115    1120    1121    1119
    1122    1120    1121    1125    1122    1120    1121    1119
    1115    1113    1118    1131    1114    1113    1118    1131
    1113    1118    1119    1121    1113    1118    1119    1127
    1131    1118    1119    1127    1131    1118    1119    1121
    1120    1115    1117    1316    1117    1115    1120    1121
    1118    1113    1115    1117    1113    1115    1117    1316
    1113    1115    1117    1116    1113    1115    1120    1121
    1114    1113    1118    1119    1118    1113    1114    1130
    1115    1113    1114    1130    1114    1113    1115    1120
    1114    1113    1115    1117    1115    1113    1118    1119
    1118    1113    1115    1120    1138    1133    1135    1139
    1137    1135    1139    1142    1138    1133    1135    1137
    1137    1135    1139    1144    1133    1135    1137    1136
    1133    1135    1139    1142    1133    1135    1139    1144
    1133    1135    1137    1140    1139    1135    1137    1140
    1113    1118    1131    1327    1113    1118    1131    1326
    1113    1118    1131    1328    1119    1118    1131    1327
    1119    1118    1131    1326    1119    1118    1131    1328
    1121    1120    1122    1317    1115    1120    1122    1318
    1121    1120    1122    1123    1121    1120    1122    1318
    1115    1120    1122    1317    1115    1120    1122    1123
    1120    1122    1123    1319    1120    1122    1123    1124
    1317    1122    1123    1319    1120    1122    1123    1235
    1318    1122    1123    1319    1122    1123    1124    1126
    1122    1123    1124    1125    1124    1123    1235    1398
    1319    1123    1235    1398    1318    1122    1123    1235
    1318    1122    1123    1124    1122    1123    1235    1399
    1124    1123    1235    1399    1319    1123    1235    1399
    1317    1122    1123    1235    1317    1122    1123    1124
    1122    1123    1235    1398    1319    1123    1124    1125
    1235    1123    1124    1125    1235    1123    1124    1126
    1319    1123    1124    1126     917     921     922     920
    1137    1136    1162    1164    1132    1136    1162    1164
    1137    1136    1162    1163    1132    1136    1162    1163
    1136    1162    1164    1348    1163    1162    1164    1348
    1124    1123    1235    1231    1122    1123    1235    1231
    1392    1231    1235    1123    1319    1123    1235    1231
    1315    1116    1117    1115    1120    1115    1117    1116
     918     917     921     922     921     917     918    1068
     916     917     921    1070     916     917     918    1068
     918     917     921    1070     919     916     917     918
     916     917     921     922     916     917     918     913
     921     917     918     913    1274    1273    1277    1282
    1266    1273    1274    1272    1266    1273    1277    1282
    1274    1273    1277    1279    1266    1273    1277    1279
    1277    1273    1274    1280    1266    1273    1274    1280
     916     919     920     922    1259    1262    1263    1264
    1262    1263    1264    1422    1420    1263    1264    1422
    1417    1262    1263    1264    1420    1263    1264    1421
    1419    1263    1264    1421    1262    1263    1264    1265
    1262    1263    1264    1421    1419    1263    1264    1422
    1418    1262    1263    1264    1269    1270    1276    1428
    1268    1270    1276    1429    1269    1270    1276    1430
    1269    1270    1276    1429    1268    1270    1276    1428
    1268    1270    1276    1430    1268    1278    1296    1449
    1268    1278    1279    1277    1279    1278    1296    1449
    1268    1278    1279    1431    1264    1265    1267    1271
    1269    1265    1267    1271    1267    1265    1269    1270
    1264    1265    1269    1275    1264    1265    1269    1270
    1264    1265    1267    1266     907     908     910     916
     907     908     910     909    1059     907     908     910
     917     916     919    1069     910     916     919     920
     917     916     919     920     910     916     917     921
     910     916     917     918     910     916     919    1069
     919     916     917     921     446     447     449     626
     446     447     449     450     447     449     450     453
     447     449     450     452     626     449     450     453
    1273    1277    1282    1432    1282    1277    1279    1431
    1273    1277    1282    1281    1273    1277    1279    1431
    1279    1277    1282    1432    1273    1277    1279    1278
    1279    1277    1282    1281    1265    1269    1275    1426
    1270    1269    1275    1426    1270    1269    1275    1425
    1270    1269    1275    1427    1265    1269    1275    1425
    1265    1269    1275    1427    1267    1265    1269    1275
    1265    1269    1270    1268    1275    1269    1270    1276
    1275    1269    1270    1268    1267    1266    1268    1270
    1268    1266    1267    1271    1267    1266    1273    1277
    1273    1266    1268    1278    1267    1266    1268    1278
    1267    1266    1273    1274    1268    1266    1273    1277
    1268    1266    1273    1274    1296    1278    1279    1431
    1296    1278    1279    1277    1282    1277    1279    1278
    1270    1268    1278    1296    1266    1268    1278    1279
    1270    1268    1278    1279    1273    1266    1268    1270
    1266    1268    1270    1269    1266    1268    1278    1296
    1266    1268    1270    1276    1265    1269    1270    1276
    1278    1268    1270    1269    1278    1268    1270    1276
    1420    1263    1264    1265    1419    1263    1264    1265
    1263    1264    1265    1267    1263    1264    1265    1269
    1422    1264    1265    1269    1421    1264    1265    1269
    1422    1264    1265    1267    1421    1264    1265    1267
     886     882     883     884     886     882     883     881
    1042     881     883     882    1042     881     883     884
     882     883     884     890     882     883     884     885
     881     883     884     890     881     883     884     885
     880     881     883     882     880     881     883     884
     890     894     895     897     891     890     894    1050
     891     890     894     895     884     890     894    1050
     884     890     891     893     894     890     891     896
     884     890     894     895     884     890     891     896
     890     894     895     898     898     895     897    1052
     894     895     897    1052    1050     894     895     897
     894     895     897     896    1050     894     895     898
     898     895     897     896    1051     896     897     895
    1051     896     897    1052     891     896     897    1052
     891     896     897     895     885     884     890     891
     883     884     890     894     883     884     890     891
     890     884     885     892     885     884     890     894
     883     884     885     892     883     884     885     887
     890     891     893     892     890     891     896     897
     893     891     896    1051     896     891     893    1049
     890     891     896    1051     890     891     893    1049
     893     891     896     897     894     890     891     893
     883     882     886     887     879     882     886     887
     879     882     883     884     883     882     886    1043
     879     882     886    1043     879     882     883     881
     894     895     898     899     897     895     898     899
     897     895     898    1054     894     895     898    1053
     897     895     898    1053     894     895     898    1054
    1053     898     899    1056    1054     898     899    1055
     895     898     899    1056    1054     898     899    1056
     895     898     899    1055    1053     898     899    1055
     879     877     880     889     875     877     880     889
     877     880     881     883     889     880     881    1042
     877     880     881    1042     889     880     881     883
     884     885     887    1044     884     885     892     893
     887     885     892     893     887     885     892    1048
     884     885     892    1048     890     884     885     887
     884     885     887     886     892     885     887    1044
     896     891     893     892    1048     892     893     891
     878     879     882     886     877     879     882     883
     878     879     882     883    1041     878     879     882
     880     877     879     878    1041     878     879     877
     877     879     882     886     888     875     877     879
     875     877     879     878     875     877     880     881
     880     877     879     882     879     877     880     881
     875     877     879     882     888     875     877     880
     882     886     887    1044    1043     886     887    1044
     882     886     887     885     877     880     889    1046
     877     880     889    1045     877     880     889    1047
     881     880     889    1045     881     880     889    1047
     881     880     889    1046     874     878     879     882
     874     878     879     877     885     892     893     891
     885     892     893    1049    1048     892     893    1049
     478     479     483     484     478     479     483     643
     479     483     484     482     643     483     484     644
     479     483     484     644    3585    3420    3421    3422
    3420    3421    3422    3424    3420    3421    3422    3426
    3584    3420    3421    3422    3587    3421    3422    3426
    3586    3421    3422    3424    3587    3421    3422    3424
    3586    3421    3422    3426    2609    2610    2611    2613
    2609    2610    2611    2615    2797    2609    2610    2611
    2796    2609    2610    2611    2798    2610    2611    2613
    2798    2610    2611    2615    2799    2610    2611    2615
    2799    2610    2611    2613    2599    2601    2609    2797
    2599    2601    2609    2610    2600    2601    2609    2796
    2600    2601    2609    2797    2600    2601    2609    2610
    2599    2601    2609    2796    2601    2609    2610    2799
    2797    2609    2610    2798    2796    2609    2610    2799
    2797    2609    2610    2799    2796    2609    2610    2798
    2601    2609    2610    2798    2601    2609    2610    2611
     892     885     887     886    1043     886     887     885
    2602    2603    2607    2792    2605    2603    2607    2606
    2602    2603    2607    2606    1089     939     941    1092
     940     939     941    1092     940     939     941     934
     888     933     935     940     888     933     935     934
     937     933     935     940     936     934     935     940
     936     934     935     933     937     933     935     934
     941     934     935     940    2606    2604    2605    2608
    2606    2604    2605    2603    2602    2603    2605    2604
    2602    2603    2605    2608    2607    2603    2605    2608
    2789    2604    2605    2608    2789    2604    2605    2603
    2607    2603    2605    2604     935     934     941     939
     936     934     941     939    1089     939     941     934
    2787    2597    2598    2788    2599    2597    2598    2788
    2598    2597    2599    2602    2598    2597    2599    2601
    2787    2597    2599    2602    2787    2597    2598    2595
    2599    2597    2598    2595    2600    2595    2598    2597
     933     935     940    1090     934     935     940    1091
     933     935     940     939     934     935     940    1090
     934     935     940     939     933     935     940    1091
     941     939     940    1091    1089     939     940    1091
    1089     939     940    1090     941     939     940    1090
    1089     939     940     935     941     939     940     935
    2597    2599    2601    2609    2602    2599    2601    2609
    2596    2600    2601    2599    2596    2600    2601    2609
    2595    2600    2601    2609    2602    2599    2601    2600
    2603    2605    2608    2794    2603    2605    2608    2793
    2603    2605    2608    2795    2604    2605    2608    2794
    2604    2605    2608    2793    2604    2605    2608    2795
    2610    2611    2615    2616    2610    2611    2613    2612
    2610    2611    2615    2800    2610    2611    2613    2617
    2613    2611    2615    2616    2613    2611    2615    2800
     875     888     933     935     875     888     933     937
     935     933     937    1087     935     933     937     938
    2594    2589    2591    2595    2589    2591    2595    2600
    2589    2591    2593    2596    2593    2591    2595    2598
    2594    2589    2591    2593    2593    2591    2595    2600
    2595    2591    2593    2596    2589    2591    2593    2592
    2589    2591    2595    2598    2601    2599    2602    2603
    2597    2599    2601    2600    2597    2599    2602    2603
    2787    2597    2599    2601     877     875     888     933
     876     875     877     879     876     875     877     880
     877     875     876    1040     876     875     888     933
    2599    2602    2603    2605    2599    2602    2603    2607
    2605    2603    2607    2792     941     934     936    1086
     935     934     936     938     935     934     941    1092
     936     934     941    1092     935     934     936    1086
     941     934     935     933     941     934     936     938
    2591    2595    2600    2596    2591    2595    2598    2597
    2591    2595    2600    2601    2598    2595    2600    2601
    2600    2595    2598    2788    2591    2595    2598    2788
    2598    2595    2600    2596     873     874     876    1040
     876     874     878     879     873     874     878     879
     873     874     876     875     878     874     876    1040
     876     874     878    1041     873     874     878    1041
     888     875     876    1040     888     875     876     874
     878     874     876     875     877     875     876     874
    2593    2596    2600    2595    2593    2596    2600    2601
    2595    2600    2601    2599    2611    2615    2616    2621
    2611    2615    2616    2614    2800    2615    2616    2621
    2800    2615    2616    2614     741     743     765     960
     741     743     744     946     744     743     765     960
    1176    1171    1173    1172    1351    1172    1173    1171
    1172    1168    1170    1183    1170    1168    1172    1173
    1167    1168    1172    1173    1167    1168    1172    1351
    1170    1168    1172    1351    1167    1168    1170    1183
    1167    1168    1170    1169      89      86      88     263
      89      86      88      87    1174    1169    1171    1176
    1169    1171    1173    1172    1169    1171    1176    1179
    1169    1171    1173    1352    1173    1171    1176    1175
    1173    1171    1176    1179    1176    1171    1173    1352
    1174    1169    1171    1173    1169    1171    1176    1175
    1168    1172    1173    1352    1168    1172    1173    1171
    1351    1172    1173    1352    1156    1166    1167    1168
    1156    1166    1167    1350    1156    1166    1167    1349
    1166    1167    1168    1170    1166    1167    1168    1172
    1350    1167    1168    1172    1349    1167    1168    1172
    1350    1167    1168    1170    1349    1167    1168    1170
    1174    1175    1176    1179    1174    1175    1176    1171
    1171    1176    1179    1180    1175    1176    1179    1180
    1177    1175    1176    1171      79      84      87      90
      83      84      87      90      84      87      88     263
      90      87      88     263      84      87      88      86
      90      87      88      86      85      86      88     263
      85      86      89     264      88      86      89     264
      85      86      88      87     262      85      86      88
    1169    1170    1183    1360    1174    1169    1170    1168
    1171    1169    1170    1168    1172    1168    1170    1169
    1168    1170    1183    1360     742     741     743     744
     737     741     742     740     737     741     743     765
     737     741     742     764     742     741     743     765
     743     741     742     764     737     741     743     744
    1171    1176    1179    1182    1175    1176    1179    1182
    1176    1179    1180    1355    1182    1179    1180    1355
    1176    1179    1180    1178    1182    1179    1180    1178
    1170    1169    1171    1173    1171    1169    1170    1183
    1174    1169    1170    1183    1171    1169    1174    1175
    1171    1169    1174    1353    1170    1169    1174    1175
    1170    1169    1174    1353    1170    1169    1171    1176
     740     742     764     958     741     742     764     958
     741     742     764     959     945     740     742     741
     740     742     764     959     743     741     742     740
     932     914     915    1067     918     913     915     914
     932     914     915     913      82      83      85      86
      82      83      85     262      83      85      86      88
      83      85      86      89     262      85      86      89
     943     733     734     732     943     733     734     744
     733     734     744     946     733     734     744     743
     732     734     744     946     732     734     744     743
     737     732     734     733    1169    1174    1175    1177
    1169    1174    1175    1176    1353    1174    1175    1177
    1177    1175    1176    1179    1176    1175    1177    1178
    1176    1175    1177    1354    1353    1174    1175    1176
      84      87      90     265      84      87      90     267
      84      87      90     266      88      87      90     266
      88      87      90     265      88      87      90     267
    1176    1179    1182    1357    1180    1179    1182    1357
    1180    1179    1182    1359    1180    1179    1182    1358
    1176    1179    1182    1359    1176    1179    1182    1358
     765     743     744     946     765     743     744     734
     741     743     744     734     732     737     741     743
     732     737     741     742     732     737     738     739
     738     737     741     743     738     737     741     742
     732     737     738     736    1174    1175    1177    1178
    1174    1175    1177    1354    1175    1177    1178    1180
    1175    1177    1178    1181    1354    1177    1178    1181
     908     910     916     917     908     910     916     919
    1060     908     910     909     913     909     910     908
     909     910     916     917     909     910     916     919
    1060     908     910     916    1280    1281    1282    1277
    1285    1281    1282    1277    2672    2670    2671    2829
    2671    2670    2672    2830    2671    2670    2675    2833
    2672    2670    2675    2833    2671    2670    2672    2674
    3304    3306    3307    3308    3304    3306    3307    3419
    3501    3306    3307    3503    3502    3306    3307    3503
    3502    3306    3307    3419    3502    3306    3307    3308
    3306    3307    3419    3583    3306    3307    3308    3310
    3501    3306    3307    3419    3501    3306    3307    3308
    3306    3307    3419    3582    3306    3307    3308    3309
    3503    3307    3419    3583    3308    3307    3419    3582
    3503    3307    3419    3582    3308    3307    3419    3583
    3503    3307    3308    3309    3503    3307    3308    3310
    3419    3307    3308    3310    3419    3307    3308    3309
     899     900     901     903    1056     899     900     901
    1055     899     900     901     899     900     901     905
    1058     900     901     903    1057     900     901     903
    1058     900     901     905    1057     900     901     905
    3579    3417    3418    3580    3578    3417    3418    3581
    3416    3417    3418    3581    3416    3417    3418    3580
    3578    3417    3418    3580    3579    3417    3418    3581
    3577    3416    3417    3418    3308    3307    3419    3415
    3306    3307    3419    3415    3503    3307    3419    3415
    3576    3415    3419    3307     902     909     913     915
     902     909     910     916     902     909     910     908
     910     909     913     915     913     909     910     916
     910     909     913     918     902     909     913     918
     902     904     906     912     901     905     906     912
     914     904     906     912     914     904     906     905
    3416    3420    3421    3587    3585    3420    3421    3587
    3584    3420    3421    3586    3416    3420    3421    3586
    3584    3420    3421    3587    3577    3416    3420    3421
    3585    3420    3421    3586    3416    3420    3421    3422
     895     898     899     900    1056     899     900    1057
    1053     898     899     900     898     899     900     901
    1056     899     900    1058    1054     898     899     900
     898     899     900    1058     898     899     900    1057
    1055     899     900    1058    1055     899     900    1057
     904     902     903     907     903     902     904     914
     903     902     909     913     903     902     909     910
     904     902     909     910     909     902     904     914
     903     902     904     906     904     902     909     913
     902     904     914     915     906     904     914     915
     909     902     904     906     902     904     906     905
     902     904     914     932     906     904     914     932
    3411    3412    3415    3416    3412    3415    3416    3417
    3419    3415    3416    3420    3412    3415    3419    3583
    3576    3415    3419    3583    3412    3415    3419    3582
    3576    3415    3416    3577    3576    3415    3419    3582
    3572    3412    3415    3419    3572    3412    3415    3416
    3416    3415    3419    3583    3412    3415    3416    3577
    3419    3415    3416    3577    3416    3415    3419    3582
    3412    3415    3416    3420    3416    3415    3419    3307
    3412    3415    3419    3307     904     914     915    1067
     915     914     932    1085     904     914     932    1085
     904     914     915     913    3577    3416    3417    3579
    3415    3416    3420    3585    3577    3416    3420    3584
    3417    3416    3420    3421    3577    3416    3417    3578
    3415    3416    3417    3579    3415    3416    3420    3584
    3577    3416    3420    3585    3417    3416    3420    3585
    3419    3415    3416    3417    3415    3416    3417    3578
    3417    3416    3420    3584    3420    3416    3417    3579
    3576    3415    3416    3417    3420    3416    3417    3578
    3576    3415    3416    3420    3415    3416    3417    3418
    3415    3416    3420    3421    3420    3416    3417    3418
     903     901     905     911     901     905     906     904
     911     905     906     912     911     905     906     904
     909     913     915    1067     915     913     918    1068
     918     913     915    1067     909     913     915     914
     909     913     918     917     915     913     918     917
     909     913     918    1068     905     906     912    1065
     905     906     912    1064     904     906     912    1065
     905     906     912    1066     904     906     912    1064
     904     906     912    1066     903     901     905     906
     900     901     903     907     900     901     903     902
     900     901     905     911     900     901     905     906
     905     901     903     907     909     902     903     907
     901     903     907     908     902     903     907    1059
     909     902     903     901     901     903     907    1059
     904     902     903     901     905     901     903     902
     902     903     907     908     901     905     911    1063
     901     905     911    1062     901     905     911    1061
     906     905     911    1061     906     905     911    1063
     906     905     911    1062     903     907     908     910
    1059     907     908    1060     903     907     908    1060
    3428    3429    3431    3430    3428    3429    3431    3432
    3429    3428    3437    3595    3429    3428    3437    3594
    3425    3428    3437    3594    3429    3428    3437    3593
    3425    3428    3437    3593    3425    3428    3437    3595
    3427    3425    3428    3437    3423    3425    3428    3437
    3425    3428    3429    3431    3437    3428    3429    3590
    3425    3428    3429    3590    3437    3428    3429    3431
    3428    3425    3427    3430    3436    3423    3425    3427
    3423    3425    3427    3426    3436    3423    3425    3428
    3423    3425    3427    3430    3423    3425    3428    3429
    3427    3425    3428    3429    3589    3426    3427    3430
    3428    3425    3427    3426    3425    3427    3430    3431
    3426    3427    3430    3434    3589    3426    3427    3425
    3426    3427    3430    3431    3425    3427    3430    3434
    3590    3429    3431    3430    3429    3431    3432    3438
    3429    3431    3432    3433    3590    3429    3431    3432
    3434    3430    3431    3432    3434    3430    3431    3429
    3430    3431    3432    3438    3430    3431    3432    3433
    3427    3430    3434    3591    3427    3430    3431    3432
    3431    3430    3434    3591    3427    3430    3434    3435
    3427    3430    3431    3429    3431    3430    3434    3435
    3438    3442    3443    3445      11      12      14      13
      11      12      14      36     217      12      14      36
    3432    3438    3442    3443    3432    3438    3439    3444
    3432    3438    3439    3441    3439    3438    3442    3443
    3442    3438    3439    3444    3432    3438    3442    3598
    3439    3438    3442    3598    3438    3432    3433    3440
    3431    3432    3433    3440    3431    3432    3433    3435
    3431    3432    3438    3442    3433    3432    3438    3442
    3431    3432    3438    3439    3433    3432    3438    3439
      15      13      14      12      12      14      36     230
      13      14      36     231      13      14      36     230
      12      14      36     231     217      12      14      13
    3424    3423    3425    3427    3424    3423    3436    3481
    3425    3423    3424    3588    3424    3423    3425    3428
    3425    3423    3436    3481    3422    3426    3427    3430
    3422    3426    3427    3425    2611    2613    2617    2801
    2611    2613    2617    2803    2612    2613    2617    2801
    2612    2613    2617    2803    2611    2613    2617    2802
    2612    2613    2617    2802    3441    3439    3444    3599
    3444    3439    3441    3597    3438    3439    3444    3599
    3442    3438    3439    3441    3441    3439    3444    3445
    3438    3439    3441    3597    3438    3439    3441    3440
    3438    3439    3444    3445     713     563     564     715
     714     563     564     715     563     564     567     720
     563     564     565     717     714     563     564     565
     713     563     564     565     563     564     565     566
     715     564     567     720     715     564     565     716
     565     564     567     720     563     564     565     716
     715     564     565     717      14      13      15      37
       9      13      15      16       9      13      14      36
      14      13      15      16      15      13      14      36
       9      13      14      12       9      13      15      37
    3436    3423    3424    3588    3426    3422    3424    3423
    3436    3423    3424    3422    3425    3423    3424    3422
       8      10      11      19       9      10      11      19
      10      11      12     217      19      11      12     217
      10      11      12      14      19      11      12      14
     558     559     563     564     559     563     564     715
     559     563     564     565     559     563     564     567
     707     559     563     564     714     563     564     567
     713     563     564     567       4       9      10       8
      10       9      13      15       4       9      13      14
       4       9      13      15       4       9      10      11
      10       9      13      14    3424    3422    3426    3589
    3421    3422    3424    3423    3421    3422    3426    3589
    3424    3422    3426    3427    3426    3422    3424    3588
    3421    3422    3424    3588    3421    3422    3426    3427
    3599    3444    3445    3443    2621    2640    2644    2818
    2621    2640    2644    2645    2640    2644    2645    2643
    3599    3444    3445    3600    3439    3444    3445    3600
    3439    3444    3445    3443    2644    2645    2683    2684
    2644    2645    2683    2842    2644    2645    2683    2843
    2643    2645    2683    2684    2643    2645    2683    2842
    2643    2645    2683    2843    2645    2683    2684    2844
     154     158     159     316     315     158     159     316
     154     158     159     157    2627    2625    2630    2631
    2627    2625    2630    2809    2626    2625    2627    2632
    2626    2625    2627    2629    2626    2625    2630    2631
    2626    2625    2630    2809    2630    2625    2626    2639
    2627    2625    2626    2639     164     157     159     158
     315     158     159     157    2591    2589    2590    2785
    2590    2589    2594    2786    2590    2589    2591    2593
    2590    2589    2591    2595    2591    2589    2594    2786
    2574    2575    2577    2576    2574    2575    2583    2588
    2577    2575    2583    2588    2576    2578    2579    2691
    2774    2578    2579    2775    2773    2578    2579    2775
    2576    2578    2579    2580    2578    2579    2580    2582
    2580    2579    2691    2854    2774    2578    2579    2580
    2775    2579    2691    2854    2774    2578    2579    2691
    2578    2579    2691    2855    2775    2579    2691    2855
    2773    2578    2579    2691    2578    2579    2691    2854
    2578    2579    2580    2581    2580    2579    2691    2855
    2773    2578    2579    2580    2691    2579    2580    2582
    2775    2579    2580    2581    2691    2579    2580    2581
    2775    2579    2580    2582    2628    2624    2626    2625
    2624    2626    2639    2816    2630    2625    2626    2624
    2627    2625    2626    2624    2625    2626    2639    2816
    2571    2576    2578    2773    2571    2576    2578    2579
    2577    2576    2578    2774    2577    2576    2578    2773
    2577    2576    2578    2579    2571    2576    2578    2774
    2576    2578    2579    2775    2583    2588    2592    2593
    2590    2588    2592    2618    2583    2588    2592    2618
    2588    2592    2593    2596    2588    2592    2593    2591
    2618    2592    2593    2591    2618    2592    2593    2596
    2583    2588    2590    2785    2583    2588    2590    2589
    2594    2589    2590    2785    2594    2589    2590    2588
    2592    2588    2590    2589    2591    2589    2590    2588
    2575    2577    2581    2776    2576    2577    2581    2776
    2575    2577    2581    2580    2576    2577    2581    2580
    2575    2577    2581    2777    2576    2577    2581    2777
    2579    2580    2581    2777    2582    2580    2581    2777
    2579    2580    2581    2776    2582    2580    2581    2776
    2582    2580    2581    2577    2579    2580    2581    2577
    2641    2643    2645    2683    2640    2644    2645    2683
    2686    2643    2645    2683    2818    2644    2645    2643
    2818    2644    2645    2683    2623    2624    2628    2629
    2623    2624    2626    2625    2623    2624    2628    2807
    2626    2624    2628    2629    2628    2624    2626    2639
    2626    2624    2628    2807    2623    2624    2626    2639
    2591    2593    2596    2600    2595    2591    2593    2592
    2592    2593    2596    2600    2632    2627    2629    2628
    2807    2628    2629    2627    2573    2571    2576    2578
    2569    2571    2576    2578    2578    2576    2577    2581
    2571    2576    2577    2575    2578    2576    2577    2575
    2575    2583    2588    2590    2575    2583    2588    2592
    2592    2588    2590    2785    2590    2588    2592    2593
    2574    2575    2577    2581    2571    2576    2577    2581
    2583    2575    2577    2581    2583    2575    2577    2576
    2615    2611    2613    2617    2614    2612    2613    2617
    2622    2612    2613    2611    2622    2612    2613    2617
    2615    2611    2613    2612    2614    2612    2613    2611
    2624    2628    2629    2808    2807    2628    2629    2808
    2624    2628    2629    2627    2588    2592    2618    2619
    2593    2592    2618    2620    2593    2592    2618    2619
    2588    2592    2618    2620    2592    2618    2620    2804
    2619    2618    2620    2804    2614    2612    2622    2623
    2613    2612    2622    2623    2613    2612    2614    2616
    2622    2612    2614    2616    2612    2622    2623    2805
    2612    2622    2623    2624    2612    2622    2623    2806
    2622    2623    2624    2626    2622    2623    2624    2628
    2805    2623    2624    2626    2806    2623    2624    2628
    2805    2623    2624    2628    2806    2623    2624    2626
    2851    2689    2690    2852    2849    2688    2689    2690
    2850    2689    2690    2853    2688    2689    2690    2853
    2851    2689    2690    2853    2850    2689    2690    2852
    2688    2689    2690    2852    2848    2687    2688    2692
    2687    2688    2689    2851    2849    2688    2689    2850
    2687    2688    2692    2856    2687    2688    2689    2850
    2689    2688    2692    2693    2687    2688    2692    2857
    2692    2688    2689    2850    2689    2688    2692    2857
    2691    2687    2688    2689    2687    2688    2689    2690
    2687    2688    2692    2693    2689    2688    2692    2856
    2692    2688    2689    2851    2849    2688    2692    2857
    2849    2688    2689    2851    2848    2687    2688    2689
    2849    2688    2692    2856    2692    2688    2689    2690
    2688    2692    2693    2859    2857    2692    2693    2859
    2688    2692    2693    2858    2856    2692    2693    2859
    2856    2692    2693    2858    2849    2688    2692    2693
    2688    2692    2693    2694    2857    2692    2693    2858
    2693    2694    2698    2861    2696    2694    2698    2699
    2698    2694    2696    2860    2693    2694    2696    2860
    2696    2694    2698    2861    2693    2694    2698    2699
    2693    2694    2696    2695    2688    2689    2690    2685
    2850    2689    2690    2685    2851    2689    2690    2685
    2845    2685    2690    2689    2690    2685    2686    2847
    2845    2685    2690    2853    2684    2685    2686    2846
    2845    2685    2686    2846    2684    2685    2690    2689
    2690    2685    2686    2846    2845    2685    2690    2852
    2844    2684    2685    2690    2684    2685    2686    2847
    2845    2685    2686    2847    2684    2685    2690    2853
    2686    2685    2690    2689    2684    2685    2690    2852
    2686    2685    2690    2853    2844    2684    2685    2686
    2686    2685    2690    2852    2690    2685    2686    2643
    2684    2685    2686    2643    2683    2684    2687    2688
    2691    2687    2688    2849    2688    2687    2691    2854
    2844    2684    2687    2691    2844    2684    2687    2688
    2684    2687    2688    2692    2688    2687    2691    2855
    2848    2687    2688    2849    2848    2687    2691    2854
    2684    2687    2688    2689    2684    2687    2691    2855
    2684    2687    2688    2849    2848    2687    2691    2855
    2684    2687    2691    2854    2691    2687    2688    2692
    2684    2687    2691    2579    2688    2687    2691    2579
    2694    2698    2699    2702    2694    2698    2699    2697
    2857    2692    2693    2694    2692    2693    2694    2696
    2692    2693    2694    2698    2856    2692    2693    2694
    2859    2693    2694    2696    2858    2693    2694    2696
    2859    2693    2694    2698    2858    2693    2694    2698
    2645    2683    2684    2687    2645    2683    2684    2685
    2842    2683    2684    2844    2843    2683    2684    2844
    2843    2683    2684    2687    2685    2684    2687    2691
    2683    2684    2685    2686    2843    2683    2684    2685
    2842    2683    2684    2687    2844    2684    2687    2848
    2685    2684    2687    2688    2687    2684    2685    2690
    2842    2683    2684    2685    2685    2684    2687    2848
    2683    2684    2687    2691    2683    2684    2685    2845
    2844    2684    2685    2845    2687    2684    2685    2845
    2683    2684    2685    2690    2683    2684    2687    2848
    2687    2684    2685    2686    2698    2699    2702    2703
    2697    2699    2702    2706    2697    2699    2702    2703
    2861    2698    2699    2697    2700    2697    2699    2698
    2861    2698    2699    2702    2698    2699    2702    2706
    2708    2695    2696    2860    2708    2695    2696    2694
    2697    2695    2696    2694    2698    2694    2696    2695
    2708    2695    2697    2700    2695    2697    2699    2698
    2700    2697    2699    2702    2695    2697    2699    2702
    2695    2697    2700    2701    2708    2695    2697    2699
    2699    2697    2700    2701    2580    2579    2691    2687
    2578    2579    2691    2687    2848    2687    2691    2579
    2775    2579    2691    2687    2840    2681    2682    2841
    2679    2681    2682    2841    2679    2681    2682    2678
    2697    2695    2696    2860    2696    2695    2708    2753
    2696    2695    2697    2699    2696    2695    2697    2700
    2697    2695    2708    2753    2753    2755    2760    2910
    2753    2755    2760    2759    2754    2755    2760    2759
    2754    2755    2760    2910    2753    2755    2760    2911
    2754    2755    2760    2911    2761    2759    2760    2911
    2761    2759    2760    2910    2909    2759    2760    2910
    2909    2759    2760    2911    2909    2759    2760    2755
    2761    2759    2760    2755    2840    2681    2682    2678
    2756    2754    2761    2759    2755    2754    2761    2759
    2909    2759    2761    2754    2909    2759    2761    2912
    2760    2759    2761    2912    2760    2759    2761    2754
     739     740     742     764     739     740     742     741
     945     740     742     764    2761    2754    2756    2906
    2756    2754    2761    2912    2755    2754    2756    2758
    2755    2754    2761    2912    2755    2754    2756    2906
    2761    2754    2755    2753    2761    2754    2756    2758
    3303    3302    3315    3510    3297    3302    3315    3512
    3297    3302    3315    3511    3297    3302    3315    3510
    3303    3302    3315    3512    3303    3302    3315    3511
    3436    3481    3485    3635    3436    3481    3485    3486
    3481    3485    3486    3636    3481    3485    3486    3484
    3635    3485    3486    3636    3635    3485    3486    3484
    3634    3484    3486    3485    3305    3303    3311    3316
    3302    3303    3305    3304    3302    3303    3311    3316
    3303    3305    3309    3505    3304    3305    3309    3504
    3303    3305    3309    3504    3303    3305    3309    3308
    3304    3305    3309    3505    3304    3305    3309    3308
    3307    3308    3309    3505    3310    3308    3309    3504
    3307    3308    3309    3504    3310    3308    3309    3505
    3310    3308    3309    3305    3307    3308    3309    3305
    3299    3297    3302    3303    3302    3297    3299    3304
    3298    3297    3302    3303    3298    3297    3299    3304
    3298    3297    3299    3301    3302    3297    3298    3314
    3299    3297    3298    3314    3499    3300    3301    3500
    3296    3300    3301    3500    3296    3300    3301    3299
    3483    3482    3484    3486    3489    3482    3484    3634
    3483    3482    3489    3640    3484    3482    3489    3640
    3483    3482    3484    3634    3489    3482    3483    3481
    3489    3482    3484    3486    2695    2708    2753    2755
    2695    2708    2753    2757    2755    2753    2757    2907
    2755    2753    2757    2758    3304    3299    3301    3300
    3499    3300    3301    3299    3423    3436    3481    3483
    3423    3436    3481    3485    3483    3481    3485    3635
    3483    3481    3485    3486    2754    2756    2758    2908
    2754    2756    2758    2757    2906    2756    2758    2908
    3302    3303    3305    3309    3299    3304    3305    3309
    3311    3303    3305    3309    3311    3303    3305    3304
    2708    2753    2755    2760    2757    2753    2755    2760
    2708    2753    2755    2754    2756    2754    2755    2760
    2756    2754    2755    2753    2757    2753    2755    2754
    2761    2754    2755    2760    2906    2756    2758    2757
    2907    2757    2758    2756    3485    3481    3483    3488
    3436    3481    3483    3482    3436    3481    3483    3488
    3484    3482    3483    3488    3484    3482    3483    3481
    3489    3482    3483    3488    3485    3481    3483    3482
    2708    2753    2757    2907    2708    2753    2757    2758
    2753    2757    2758    2908    2753    2757    2758    2756
    2907    2757    2758    2908    3305    3304    3306    3502
    3305    3304    3306    3501    3305    3304    3306    3307
    3299    3304    3306    3501    3299    3304    3306    3307
    3299    3304    3306    3502    3304    3306    3307    3503
    3482    3484    3486    3485    3634    3484    3486    3636
    3482    3484    3486    3636    3297    3299    3304    3305
    3304    3299    3301    3500    3301    3299    3304    3305
    3297    3299    3301    3500    3297    3299    3301    3300
    3302    3297    3299    3301    3301    3299    3304    3306
    3297    3299    3304    3306    3306    3304    3305    3309
    3299    3304    3305    3303    3306    3304    3305    3303
    3299    3297    3302    3315    3298    3297    3302    3315
    3297    3302    3303    3311    3297    3302    3303    3305
    3315    3302    3303    3311    3315    3302    3303    3305
     553     557     558     556     391     390     403     600
     385     390     403     599     391     390     403     599
     391     390     403     598     385     390     403     598
     385     390     403     600    3447    3448    3449    3451
    3447    3448    3449    3453    3603    3447    3448    3449
    3604    3447    3448    3449    3606    3448    3449    3451
    3605    3448    3449    3453    3605    3448    3449    3451
    3606    3448    3449    3453    3443    3446    3447    3448
    3603    3447    3448    3605    3604    3447    3448    3606
    3603    3447    3448    3606    3446    3447    3448    3449
    3601    3446    3447    3448    3446    3447    3448    3606
    3602    3446    3447    3448    3604    3447    3448    3605
    3446    3447    3448    3605    3442    3443    3446    3447
    3445    3443    3446    3447    3442    3443    3446    3601
    3445    3443    3446    3602    3442    3443    3446    3602
    3445    3443    3446    3601    3443    3446    3447    3603
    3443    3446    3447    3604    3602    3446    3447    3603
    3601    3446    3447    3604    3602    3446    3447    3604
    3601    3446    3447    3603      37      15      16     218
      37      15      16       6      13      15      16       6
     717     565     566     560     716     565     566     560
     708     560     566     565     564     565     566     560
     567     564     565     717     567     564     565     716
     567     564     565     566     564     565     566     719
     564     565     566     718     717     565     566     719
     715     564     565     566     716     565     566     719
     717     565     566     718     716     565     566     718
     387     385     390     403     386     385     390     403
     385     390     391     399     385     390     391     393
     403     390     391     399     403     390     391     393
      13      15      16     218      16      15      37     232
      13      15      37     232     560     561     562     712
     709     561     562     712     710     561     562     712
     708     560     561     562     709     561     562     711
     710     561     562     711     560     561     562     711
     560     561     562     556    3448    3449    3453    3459
    3448    3449    3453    3454    3453    3449    3451    3455
    3451    3449    3453    3454    3448    3449    3451    3455
    3448    3449    3451    3450     391     399     404     406
     391     399     404     408     406     404     408     409
     408     404     406     601     388     384     386     385
     387     385     386     384     385     386     402     597
     384     386     402     597     390     385     386     384
     558     559     560     566     558     559     560     561
     561     560     566     565     708     560     566     719
     708     560     561     709     559     560     566     565
     563     559     560     561     707     559     560     566
     708     560     566     718     559     560     561     709
     559     560     566     718     559     560     561     710
     561     560     566     719     566     560     561     710
     707     559     560     561     559     560     566     719
     559     560     561     562     561     560     566     718
     566     560     561     709     708     560     561     710
     566     560     561     562     386     384     388     587
     383     384     388     587     388     384     386     402
     386     384     388     389     383     384     388     389
     383     384     386     402     383     384     386     385
     390     385     387     392     387     385     386     402
     386     385     387     389     387     385     390     391
     386     385     390     391     390     385     386     402
     386     385     387     392     390     391     399     404
     393     391     399     404     390     391     393     392
    3451    3449    3453    3459    3449    3453    3454    3452
    3459    3453    3454    3460    3459    3453    3454    3452
    3454    3453    3459    3611    3449    3453    3459    3610
    3449    3453    3459    3609    3449    3453    3459    3611
    3454    3453    3459    3610    3454    3453    3459    3609
       4       6      16     218       5       6      16     218
     215       5       6       4       4       6      16      15
     215       5       6      16       5       6      16      15
       9       4       6       5     556     558     559     707
     557     558     559     707     556     558     559     563
     557     558     559     563     556     558     559     560
     557     558     559     560     707     559     560     708
     560     559     563     714     707     559     563     714
     558     559     563     713     560     559     563     713
     563     559     560     708     707     559     563     713
     558     559     563     714     563     559     560     566
     558     559     560     708     560     559     563     564
     555     556     562     711     558     556     562     711
     555     556     562     712     558     556     562     712
     555     556     562     561     558     556     562     561
     710     561     562     556     709     561     562     556
    3438    3442    3443    3446    3442    3443    3445    3600
    3446    3443    3445    3600    3598    3442    3443    3445
    3598    3442    3443    3446    3442    3443    3445    3444
    3446    3443    3445    3444       1       5       6      16
       1       5       6       4     214       1       5       6
       2       4       9      13       2       4       6       5
       2       4       9      10       6       4       9      13
       9       4       6      16       6       4       9      10
       7       2       4       6       2       4       6      16
     399     404     406     601     399     404     406     405
     410     405     406     601     407     405     406     404
     410     405     406     404     408     404     406     405
     162     166     167     169    2630    2631    2632    2635
    2627    2632    2635    2636    2631    2632    2635    2636
    2633    2631    2632    2627    2630    2631    2632    2627
    2633    2634    2636    2635    2633    2634    2636    2811
    2810    2633    2634    2636    2633    2634    2637    2812
    2636    2634    2637    2812     155     156     157     164
     155     156     162     166     155     156     157     159
     155     156     162     163     162     156     157     164
     157     156     162     166     157     156     162     163
     407     405     406     601     406     405     407     411
     407     405     410     602     406     405     410     602
     406     405     407     409     152     153     155     154
     152     153     155     156    2630    2631    2633    2634
    2630    2631    2633    2810    2631    2633    2634    2636
    2631    2633    2634    2637    2810    2633    2634    2637
    2632    2635    2638    2813    2632    2635    2638    2815
    2632    2635    2638    2814    2636    2635    2638    2814
    2636    2635    2638    2813    2636    2635    2638    2815
    2637    2634    2636    2811    2637    2634    2636    2635
     153     155     156     162     153     155     156     157
     314     153     155     156     154     155     156     162
     154     155     156     157     158     154     155     156
     158     154     155     153     314     153     155     154
     420     421     424     609     420     421     424     611
     419     421     424     609     419     421     424     611
     420     421     424     610     419     421     424     610
    2625    2630    2631    2633    2625    2630    2631    2632
    2809    2630    2631    2632    2632    2631    2633    2634
    2632    2631    2633    2810    2633    2631    2632    2635
    2809    2630    2631    2633     156     157     159     316
     156     157     164     165     159     157     164     165
     159     157     164     320     162     156     157     159
     156     157     159     158     156     157     164     320
     164     157     159     316    2627    2632    2635    2638
    2631    2632    2635    2638    2632    2635    2636    2811
    2638    2635    2636    2811    2632    2635    2636    2634
    2638    2635    2636    2634    2630    2625    2627    2632
    2629    2627    2632    2631    2629    2627    2632    2635
    2625    2627    2629    2628    2632    2627    2629    2808
    2625    2627    2629    2808    2625    2627    2632    2635
    2625    2627    2632    2631    2630    2625    2627    2629
    3451    3455    3456    3608    3451    3455    3456    3458
    3607    3455    3456    3608     163     162     166     167
     156     162     166     322     156     162     163     168
     166     162     163     168     156     162     163     165
     163     162     166     322     156     162     166     167
    2711    2710    2714    2715    2704    2710    2711    2713
    2704    2710    2714    2870    2714    2710    2711    2716
    2711    2710    2714    2870    2704    2710    2714    2715
    2704    2710    2711    2716    2703    2704    2710    2711
    2705    2704    2710    2714    2705    2704    2710    2711
    2703    2704    2710    2714    2703    2704    2705    2712
    2703    2704    2705    2707    2710    2704    2705    2712
    2713    2711    2716    2717    2710    2711    2716    2871
    2710    2711    2713    2869    2713    2711    2716    2871
    2710    2711    2713    2712    2716    2711    2713    2869
    2710    2711    2716    2717    2714    2710    2711    2713
    2711    2716    2717    2872    2711    2716    2717    2715
    2871    2716    2717    2872    2862    2701    2703    2704
    2706    2702    2703    2701    2862    2701    2703    2702
    2701    2703    2704    2710    2706    2702    2703    2704
    2702    2703    2704    2710    2701    2703    2704    2705
    2702    2703    2704    2705    2710    2714    2715    2717
    2871    2716    2717    2715    2710    2714    2715    2718
    2714    2715    2717    2716    2870    2714    2715    2718
    2718    2715    2717    2872    2714    2715    2717    2872
    2870    2714    2715    2717    2718    2715    2717    2716
    2868    2712    2713    2711    2716    2711    2713    2712
    2707    2705    2712    2713    2712    2705    2707    2864
    2707    2705    2712    2868    2704    2705    2707    2706
    2710    2704    2705    2707    2704    2705    2712    2868
    2704    2705    2707    2864    2704    2705    2712    2713
    2868    2712    2713    2869    2705    2712    2713    2869
    2705    2712    2713    2711    2863    2706    2707    2705
    2712    2705    2707    2706    2700    2701    2703    2702
    2700    2701    2703    2704     167     170     171     172
     325     170     171     172     170     171     172     330
     327     171     172     329     326     170     171     172
     170     171     172     329     327     171     172     330
     328     171     172     329     170     171     172     173
     328     171     172     330    2717    2715    2718    2874
    2714    2715    2718    2873    2717    2715    2718    2873
    2714    2715    2718    2874    2714    2715    2718    2719
    2717    2715    2718    2719    2873    2718    2719    2876
    2874    2718    2719    2876    2715    2718    2719    2875
    2874    2718    2719    2875    2715    2718    2719    2876
    2873    2718    2719    2875     323     168     169     167
     163     168     169     324     323     168     169     324
     163     168     169     167     162     166     167     170
     322     166     167     170     166     167     169     168
     170     167     169     324     322     166     167     169
     166     167     169     324     170     167     169     168
     168     163     165     164     320     164     165     163
     157     164     165     163     157     164     165     321
     320     164     165     321     166     167     170     326
     169     167     170     325     166     167     170     171
     169     167     170     326     169     167     170     171
     166     167     170     325     167     170     171     327
     325     170     171     328     326     170     171     327
     325     170     171     327     326     170     171     328
     167     170     171     328    2838    2679    2680    2839
    2680    2679    2681    2840    2837    2679    2680    2839
    2837    2679    2681    2840    2681    2679    2680    2839
    2838    2679    2681    2840    2680    2679    2681    2682
    2681    2679    2680    2678    2837    2679    2680    2678
    2838    2679    2680    2678    2837    2679    2681    2682
    2838    2679    2681    2682     162     163     165     321
     162     163     168     323     165     163     168     323
     168     163     165     321     166     162     163     165
     162     163     165     164     162     163     168     169
     165     163     168     169    2703    2702    2706    2707
    2699    2702    2706    2863    2699    2702    2703    2704
    2703    2702    2706    2863    2699    2702    2703    2701
    2699    2702    2706    2707    2702    2706    2707    2705
    2702    2706    2707    2864    2863    2706    2707    2864
     552     555     556     558     373     374     375     376
     580     372     374     375     377     373     374     372
     377     373     374     375     372     374     375     376
     580     372     374     373     372     374     375     383
     373     374     375     383     374     375     376     581
     383     375     376     581     374     375     376     378
     383     375     376     378     578     365     369     370
     365     369     370     380     365     369     370     368
     376     375     383     384     376     375     383     586
     374     375     383     586     374     375     383     585
     374     375     383     384     376     375     383     585
     375     383     384     386     375     383     384     388
     586     383     384     388     585     383     384     386
     586     383     384     386     585     383     384     388
     379     377     378     400     373     377     378     376
     378     377     379     401     373     377     379     401
     378     377     379     380     373     377     379     380
     373     377     378     400    2699    2697    2700    2709
    2695    2697    2700    2709    2697    2700    2701    2862
    2709    2700    2701    2862    2697    2700    2701    2703
    2709    2700    2701    2703    2701    2700    2709    2865
    2697    2700    2709    2866    2701    2700    2709    2867
    2697    2700    2709    2865    2701    2700    2709    2866
    2697    2700    2709    2867     366     368     373     377
     366     368     370     380     366     368     370     369
     366     368     373     374     370     368     373     377
     373     368     370     380     370     368     373     374
     371     366     368     370     377     379     401     596
     380     379     401     596     377     379     380     582
     367     365     369     370     369     365     367     382
     367     365     369     579     578     365     369     579
     578     365     367     382     366     371     381     583
     366     371     372     580     372     371     381     583
     366     371     372     374     374     373     377     378
     368     373     374     372     368     373     377     379
     374     373     377     379     368     373     374     375
     368     373     377     378    2719    2720    2721    2723
    2719    2720    2721    2725    2876    2719    2720    2721
    2875    2719    2720    2721    2877    2720    2721    2725
    2877    2720    2721    2723    2878    2720    2721    2725
    2878    2720    2721    2723     552     555     556     562
     705     555     556     562     705     555     556     558
     555     556     558     557     562     556     558     557
     401     379     380     582     401     379     380     370
     377     379     380     370     369     365     367     366
     371     366     367     365     366     367     382     584
     368     366     367     365     578     365     367     366
     365     367     382     584    2715    2718    2719    2720
    2876    2719    2720    2877    2718    2719    2720    2721
    2875    2719    2720    2877    2873    2718    2719    2720
    2718    2719    2720    2878    2874    2718    2719    2720
    2718    2719    2720    2877    2876    2719    2720    2878
    2875    2719    2720    2878     375     376     378     400
     375     376     378     377     581     376     378     400
     381     371     372     580     371     372     374     373
     381     371     372     374     371     372     374     375
     367     366     371     381     367     366     371     372
     367     366     368     373     368     366     371     381
     368     366     371     372     367     366     368     370
     371     366     367     382     368     366     367     382
     371     366     368     373    2721    2725    2731    2881
    2726    2725    2731    2881    2726    2725    2731    2883
    2726    2725    2731    2882    2721    2725    2731    2883
    2721    2725    2731    2882     555     556     558     559
     553     557     558     559     706     557     558     556
     706     557     558     559     562     556     558     559
     368     370     380     582     368     370     380     379
     579     369     370     380     369     370     380     582
     579     369     370     368     369     370     380     379
     373     368     370     369    1994    2001    2005    2007
    2002    2001    2005    2007    1994    2001    2005    2010
    1994    2001    2002    2000    1994    2001    2002    2008
    2005    2001    2002    2008    2002    2001    2005    2010
    1998    1996    2006    2007    2001    1994    1996    1998
    1994    1996    2006    2024    1994    1996    1998    1997
    1994    1996    2006    2007    1998    1996    2006    2024
    1995    1994    2001    2002    2001    1994    1996    2006
    1995    1994    1996    1998    1996    1994    2001    2005
    1996    1994    1995    1999    1995    1994    1996    2006
    1996    1994    2001    2002    1995    1994    2001    2005
    1993    1995    1999    2151    1997    1993    1995    1994
    1996    1994    1995    1993    1994    1995    1999    2000
    1993    1995    1999    2000    1994    1995    1999    2151
    2001    1994    1995    1999    2001    1994    1995    1993
    1995    1993    1997    2003    1993    1997    1998    1996
    2003    1997    1998    2004    2003    1997    1998    1996
    1992    1993    1997    1998    1992    1993    1995    1999
    1995    1993    1997    1998    1992    1993    1995    1994
    1997    1993    1995    1999    1992    1993    1997    2003
    1995    1999    2000    2152    1995    1999    2000    2002
    2151    1999    2000    2152    2151    1999    2000    2002
    1999    2000    2002    2008    1999    2000    2002    2001
    2024    2006    2007    2159    2024    2006    2007    2005
    2010    2005    2007    2006    2147    1991    1992    1993
    1991    1992    1993    1997    2148    1991    1992    1993
    1991    1992    1993    1995    2149    1992    1993    1995
    2150    1992    1993    1995    2149    1992    1993    1997
    2150    1992    1993    1997    1994    1996    1998    2004
    1993    1997    1998    2004    2006    1996    1998    1997
    2006    1996    1998    2004    2000    2002    2008    2009
    2152    2000    2002    2008    2001    2002    2008    2009
    2001    2002    2008    2011    2152    2000    2002    2001
    2005    2001    2002    2000    2000    2002    2008    2011
    2001    2005    2007    2159    2001    2005    2010    2160
    2007    2005    2010    2160    2001    2005    2007    2006
    2001    2005    2010    2009    2007    2005    2010    2009
    2010    2005    2007    2159    3480    3462    3463    3615
    3480    3462    3463    3461    3466    3461    3463    3462
    3466    3461    3463    3615    3457    3461    3466    3465
    3457    3461    3463    3462    3463    3461    3466    3616
    3457    3461    3463    3615    3463    3461    3466    3465
    3457    3461    3466    3616    1996    2006    2007    2005
    1996    2006    2024    2177    2007    2006    2024    2177
    1996    2006    2007    2159    3463    3462    3480    3633
    3452    3462    3463    3615    3452    3462    3480    3633
    3452    3462    3463    3461    2010    2009    2013    2014
    2008    2009    2013    2162    2013    2009    2010    2160
    2008    2009    2013    2014    2008    2009    2010    2160
    2010    2009    2013    2162    2011    2008    2009    2010
    1590    1586    1588    1587    2013    2009    2010    2005
    2008    2009    2010    2005    2008    2011    2012    2014
    2002    2008    2009    2013    2002    2008    2009    2010
    2009    2008    2011    2161    2002    2008    2011    2161
    2009    2008    2011    2012    2002    2008    2011    2012
    2011    2008    2009    2013    3469    3465    3466    3461
    3464    3465    3466    3461    2328    2329    2330    2332
    2328    2329    2330    2334    2493    2328    2329    2330
    2492    2328    2329    2330    2494    2329    2330    2332
    2495    2329    2330    2334    2495    2329    2330    2332
    2494    2329    2330    2334    1987    1990    1991    1992
    1990    1991    1992    1993    2148    1991    1992    2149
    2145    1990    1991    1992    2147    1991    1992    2150
    2148    1991    1992    2150    2146    1990    1991    1992
    1990    1991    1992    2150    2147    1991    1992    2149
    1990    1991    1992    2149    1989    1987    1990    1991
    1986    1987    1990    2145    1986    1987    1990    2146
    1989    1987    1990    2145    1986    1987    1990    1991
    1989    1987    1990    2146    2146    1990    1991    2147
    1987    1990    1991    2148    2146    1990    1991    2148
    1987    1990    1991    2147    2145    1990    1991    2148
    2145    1990    1991    2147    1588    1587    1589    1590
    1745    1587    1589    1748    1588    1587    1589    1748
    1589    1587    1588    1747    1746    1587    1588    1747
    1746    1587    1589    1748    1745    1587    1588    1747
    1745    1587    1588    1586    1589    1587    1588    1586
    1746    1587    1588    1586    1746    1587    1589    1590
    1745    1587    1589    1590    2938    2939    2941    2940
    2941    2939    2947    2952    2938    2939    2947    2952
    2332    2330    2334    2497    2329    2330    2334    2335
    2329    2330    2334    2497    2332    2330    2334    2335
    2329    2330    2332    2331    2334    2330    2332    2496
    2329    2330    2332    2496    3464    3467    3468    3470
    3458    3464    3467    3617    3467    3464    3465    3469
    3465    3464    3467    3617    3458    3464    3467    3468
    3465    3464    3467    3468    3458    3464    3465    3469
    3458    3464    3465    3466    2947    2952    2954    3149
    2947    2952    2954    2953    2958    2953    2954    3149
    2958    2953    2954    2952    2955    2953    2954    2952
    2956    2952    2954    2953    2344    2389    2393    2543
    2344    2389    2393    2394    2543    2393    2394    2544
    2389    2393    2394    2392    2389    2393    2394    2544
    2543    2393    2394    2392    2542    2392    2394    2393
    3620    3472    3478    3477    3628    3477    3478    3472
    3476    3477    3478    3472    3629    3477    3478    3472
    2333    2331    2344    2389    2332    2331    2344    2389
    2332    2331    2333    2336    2332    2331    2333    2335
    2333    2331    2332    2496    2391    2390    2392    2394
    2391    2390    2397    2548    2391    2390    2392    2542
    2397    2390    2392    2542    2392    2390    2397    2548
    2397    2390    2391    2389    2397    2390    2392    2394
    2392    2390    2397    2395    2391    2390    2397    2395
    2545    2395    2397    2390    3467    3468    3474    3623
    3467    3468    3474    3473    3470    3468    3474    3624
    3470    3468    3474    3623    3470    3468    3474    3473
    3467    3468    3474    3624    3622    3473    3474    3468
    3621    3473    3474    3468    2389    2391    2396    2546
    2390    2391    2396    2395    2389    2391    2396    2395
    2390    2391    2396    2546    2390    2391    2396    2547
    2389    2391    2396    2547    2545    2395    2396    2546
    2397    2395    2396    2547    2545    2395    2396    2547
    2397    2395    2396    2546    2545    2395    2396    2391
    2397    2395    2396    2391    3468    3470    3471    3619
    3468    3470    3471    3472    3469    3470    3471    3619
    3468    3470    3471    3475    3469    3470    3471    3475
    3469    3470    3471    3472    3475    3471    3472    3620
    3472    3471    3475    3625    3475    3471    3472    3478
    3619    3471    3475    3626    3470    3471    3475    3625
    3619    3471    3472    3620    3619    3471    3475    3625
    3472    3471    3475    3626    3470    3471    3475    3626
    3472    3471    3475    3476    3470    3471    3472    3620
    3470    3471    3475    3476    3471    3475    3476    3477
    3619    3471    3475    3476    3471    3475    3476    3479
    3471    3475    3476    3627    3626    3475    3476    3479
    3625    3475    3476    3479    3470    3471    3472    3478
    3470    3471    3472    3473    3471    3472    3478    3477
    3475    3471    3472    3473    3620    3472    3478    3630
    3471    3472    3473    3621    3620    3472    3473    3622
    3478    3472    3473    3621    3473    3472    3478    3477
    3471    3472    3478    3630    3620    3472    3478    3631
    3619    3471    3472    3473    3478    3472    3473    3622
    3471    3472    3473    3474    3471    3472    3478    3631
    3473    3472    3478    3630    3619    3471    3472    3478
    3473    3472    3478    3631    3620    3472    3473    3621
    3471    3472    3473    3622    3478    3472    3473    3474
    3465    3469    3470    3468    2344    2331    2332    2496
    2333    2331    2332    2330    2334    2330    2332    2331
    2344    2331    2332    2330    3467    3468    3470    3471
    3465    3469    3470    3471    3618    3469    3470    3468
    3474    3468    3470    3471    3618    3469    3470    3471
    3620    3472    3473    3474    3622    3473    3474    3623
    3472    3473    3474    3623    3621    3473    3474    3624
    3622    3473    3474    3624    3621    3473    3474    3623
    3472    3473    3474    3624    3472    3473    3474    3468
    3626    3475    3476    3627    3625    3475    3476    3627
    3625    3475    3476    3477    3475    3476    3479    3632
    3475    3476    3477    3478    3477    3476    3479    3632
    3475    3476    3477    3628    3627    3476    3477    3629
    3627    3476    3479    3632    3627    3476    3477    3628
    3475    3476    3477    3629    3626    3475    3476    3477
    2396    2395    2397    2548    2545    2395    2397    2548
    2396    2395    2397    2390    3469    3465    3466    3616
    3464    3465    3469    3470    3466    3465    3469    3470
    3464    3465    3469    3618    3466    3465    3469    3618
    3464    3465    3466    3616    3467    3464    3465    3466
    2390    2392    2394    2544    2390    2392    2394    2393
    2542    2392    2394    2544    3464    3467    3468    3474
    3467    3468    3470    3469    3617    3467    3468    3470
    3617    3467    3468    3474    3474    3468    3470    3469
    3479    3476    3477    3628    3479    3476    3477    3629
    3476    3477    3478    3630    3628    3477    3478    3631
    3628    3477    3478    3630    3476    3477    3478    3631
    3629    3477    3478    3630    3629    3477    3478    3631
    3627    3476    3477    3478    3479    3476    3477    3478
    2344    2389    2391    2390    2344    2389    2391    2396
    2393    2389    2391    2396    2392    2390    2391    2396
    2393    2389    2391    2390    2397    2390    2391    2396
    2392    2390    2391    2389    2331    2344    2389    2391
    2331    2344    2389    2393    2391    2389    2393    2394
    2391    2389    2393    2543    2528    2380    2386    2385
    2536    2385    2386    2380    2537    2385    2386    2380
    2384    2385    2386    2380    2387    2384    2385    2537
    2387    2384    2385    2536    2384    2385    2386    2538
    2387    2384    2385    2386    2537    2385    2386    2539
    2537    2385    2386    2538    2536    2385    2386    2539
    2535    2384    2385    2386    2536    2385    2386    2538
    2384    2385    2386    2539    1096    1101    1105    1107
    1102    1101    1105    1107    1096    1101    1102    1103
    1096    1101    1105    1106    1102    1101    1105    1106
    1096    1101    1102    1100    2378    2379    2380    2386
    2378    2379    2380    2381    2381    2380    2386    2385
    2379    2380    2386    2538    2528    2380    2381    2529
    2379    2380    2381    2530    2527    2379    2380    2386
    2379    2380    2386    2539    2379    2380    2381    2382
    2386    2380    2381    2529    2528    2380    2386    2539
    2381    2380    2386    2539    2527    2379    2380    2381
    2386    2380    2381    2530    2528    2380    2386    2538
    2381    2380    2386    2538    2379    2380    2386    2385
    2383    2379    2380    2381    2528    2380    2381    2530
    2379    2380    2381    2529    2386    2380    2381    2382
    2533    2383    2384    2535    2534    2383    2384    2535
    2383    2384    2387    2540    2383    2384    2385    2386
    2385    2384    2387    2540    2533    2383    2384    2385
    2535    2384    2385    2536    2383    2384    2385    2536
    2535    2384    2387    2540    2534    2383    2384    2385
    2535    2384    2385    2537    2383    2384    2385    2537
    1308    1100    1102    1101    1100    1102    1103    1104
    1105    1101    1102    1103    1101    1102    1103    1104
    1308    1100    1102    1103    1105    1101    1102    1100
    1100    1102    1103    1111    1101    1102    1103    1111
    1111    1103    1104    1309    1102    1103    1104    1106
    1102    1103    1104    1309    1111    1103    1104    1106
    2529    2381    2382    2531    2380    2381    2382    2532
    2530    2381    2382    2532    2530    2381    2382    2531
    2528    2380    2381    2382    2529    2381    2382    2532
    2380    2381    2382    2531    2380    2381    2382    2376
    1107    1105    1106    1128    1101    1105    1107    1108
    1106    1105    1107    1129    1101    1105    1106    1104
    1101    1105    1107    1129    1106    1105    1107    1108
    1101    1105    1106    1128    1103    1104    1106    1128
    1103    1104    1106    1105    1309    1104    1106    1128
    1660    1642    1643    1795    1646    1641    1643    1642
    1660    1642    1643    1641    1637    1641    1643    1642
    1637    1641    1646    1796    1637    1641    1643    1795
    1643    1641    1646    1645    1646    1641    1643    1795
    1637    1641    1646    1645    1643    1641    1646    1796
    1632    1642    1660    1813    1643    1642    1660    1813
    1632    1642    1643    1795    1632    1642    1643    1641
    1105    1106    1128    1323    1309    1104    1106    1105
    1105    1106    1128    1322    1107    1105    1106    1104
    1104    1106    1128    1323    1104    1106    1128    1322
    1105    1107    1129    1324    1105    1107    1108    1310
    1108    1107    1129    1324    2376    2378    2379    2383
    2376    2378    2379    2380    2377    2378    2379    2527
    2377    2378    2379    2383    2376    2378    2379    2527
    2377    2378    2379    2380    2527    2379    2380    2528
    2380    2379    2383    2384    2378    2379    2383    2533
    2383    2379    2380    2528    2378    2379    2383    2534
    2383    2379    2380    2386    2378    2379    2380    2528
    2380    2379    2383    2534    2527    2379    2383    2533
    2380    2379    2383    2533    2527    2379    2383    2534
    1109    1099    1100    1308    1109    1099    1100    1102
    1099    1100    1102    1101    1099    1100    1102    1103
    2378    2379    2383    2384    2379    2383    2384    2385
    2379    2383    2384    2387    2527    2379    2383    2384
    2379    2383    2384    2535    2534    2383    2384    2387
    2533    2383    2384    2387    1638    1637    1641    1646
    1630    1637    1641    1646    1630    1637    1638    1636
    1638    1637    1641    1643    1630    1637    1641    1643
    1630    1637    1638    1644    1641    1637    1638    1644
    2375    2376    2382    2381    2375    2376    2382    2532
    2378    2376    2382    2532    2375    2376    2382    2531
    2378    2376    2382    2531    2378    2376    2382    2381
    2529    2381    2382    2376    2530    2381    2382    2376
    2939    2938    2951    3147    2939    2938    2951    3146
    2939    2938    2951    3148    2933    2938    2951    3147
    2933    2938    2951    3146    2933    2938    2951    3148
    1094    1099    1100    1102    1094    1099    1109    1311
    1100    1099    1109    1311    1094    1099    1100    1308
    1129    1107    1108    1310    1105    1107    1108    1098
    1129    1107    1108    1098    1094    1096    1098    1097
    1101    1096    1098    1108    1098    1096    1101    1102
    1099    1094    1096    1098    1098    1096    1101    1105
    1094    1096    1101    1105    1094    1096    1098    1108
    1094    1096    1101    1102    1638    1644    1647    1648
    1645    1644    1647    1648    1638    1644    1645    1649
    1647    1644    1645    1649    1638    1644    1645    1646
    1638    1644    1647    1797    1645    1644    1647    1797
    1104    1103    1111    1112    1102    1103    1111    1112
    1102    1103    1111    1314    1104    1103    1111    1313
    1104    1103    1111    1314    1102    1103    1111    1313
    1103    1111    1112    1114    1103    1111    1112    1116
    1314    1111    1112    1116    1313    1111    1112    1116
    1314    1111    1112    1114    1313    1111    1112    1114
    1996    1998    2004    2156    1996    1998    2004    2158
    1997    1998    2004    2156    1997    1998    2004    2158
    1997    1998    2004    2157    1996    1998    2004    2157
    2221    2199    2200    2402    2221    2199    2200    2190
    2197    2199    2200    2190    1570    1571    1573    1734
    1570    1571    1573    1572    1574    1572    1573    1571
    1733    1572    1573    1571    1575    1571    1573    1572
    1730    1565    1566    1568    1565    1566    1568    1567
    1565    1566    1568    1570    1568    1566    1569    1732
    1565    1566    1569    1732    2197    2199    2221    2416
    2200    2199    2221    2416    2197    2199    2200    2402
    1562    1563    1564    1567    1557    1564    1567    1731
    1563    1564    1567    1731    1565    1563    1564    1557
    1562    1563    1564    1557    1557    1564    1567    1568
    1563    1564    1567    1568    1099    1094    1095    1110
    1095    1094    1099    1109    1095    1094    1099    1100
    1095    1094    1096    1101    1096    1094    1095    1110
    1095    1094    1096    1098    1096    1094    1099    1109
    1096    1094    1099    1100    1099    1094    1096    1101
    1307    1097    1098    1096    1307    1097    1098    1108
    1101    1096    1098    1097    1096    1098    1108    1310
    1097    1098    1108    1310    1096    1098    1108    1107
    1097    1098    1108    1107    1093    1097    1098    1108
    1093    1097    1098    1096    1306    1093    1097    1098
    1664    1662    1669    1667    1663    1662    1669    1667
    1817    1667    1669    1662    2189    2190    2200    2199
    2189    2190    2200    2402    2188    2190    2200    2402
    2399    2189    2190    2200    2193    2188    2190    2189
    2399    2189    2190    2188    2188    2190    2200    2199
    1094    1095    1110    1312    1306    1093    1095    1094
    1096    1094    1095    1093    1093    1095    1110    1312
    1099    1094    1095    1093    1097    1093    1095    1094
    1817    1667    1669    1820    1668    1667    1669    1820
    1668    1667    1669    1662    1095    1093    1097    1098
    1095    1093    1097    1307    1097    1093    1095    1110
    1306    1093    1097    1307    1306    1093    1095    1110
    1564    1567    1568    1566    1564    1567    1568    1570
    1731    1567    1568    1570    1569    1566    1568    1570
    1566    1568    1570    1571    1569    1566    1568    1567
    1567    1568    1570    1571    1731    1567    1568    1566
    1568    1570    1571    1573    1568    1570    1571    1575
    1573    1571    1575    1576    1575    1571    1573    1734
    1573    1571    1575    1735    2009    2013    2014    2012
    2011    2012    2014    2015    2009    2013    2014    2015
    2162    2013    2014    2012    2162    2013    2014    2015
    2018    2012    2014    2015    2008    2011    2012    2018
    2161    2011    2012    2014    2011    2012    2014    2013
    2161    2011    2012    2018    2018    2012    2014    2013
    2013    2014    2015    2016    2012    2014    2015    2019
    2012    2014    2015    2163    2013    2014    2015    2163
    2012    2014    2015    2016    2013    2014    2015    2019
    2014    2015    2016    2164    2019    2015    2016    2022
    2016    2015    2019    2020    2014    2015    2019    2169
    2014    2015    2019    2170    2163    2015    2019    2170
    2016    2015    2019    2170    2163    2015    2016    2164
    2163    2015    2019    2169    2016    2015    2019    2169
    2019    2015    2016    2164    2014    2015    2019    2020
    2163    2015    2019    2020    2015    2019    2020    2171
    2015    2019    2020    2021    2015    2019    2020    2023
    2170    2019    2020    2023    2169    2019    2020    2023
    3384    3377    3379    3381    3377    3379    3381    3380
    2027    2026    2033    2031    2028    2026    2033    2031
    2181    2031    2033    2026    2032    2031    2033    2184
    2181    2031    2033    2184    2032    2031    2033    2026
    2170    2019    2020    2171    2169    2019    2020    2171
    2171    2020    2023    2176    2019    2020    2021    2173
    2021    2020    2023    2176    2019    2020    2021    2172
    2171    2020    2021    2173    2019    2020    2021    2022
    2171    2020    2021    2172    2170    2019    2020    2021
    2019    2020    2023    2176    2169    2019    2020    2021
    3377    3379    3381    3405    3404    3380    3381    3405
    3376    3380    3381    3405    3549    3379    3381    3380
    3404    3380    3381    3379    3549    3379    3381    3405
    3568    3409    3410    3406    3408    3406    3410    3569
    3410    3406    3408    3567    3405    3406    3408    3407
    3405    3406    3410    3569    3405    3406    3408    3567
    3408    3406    3410    3409    3405    3406    3410    3409
    2028    2026    2033    2184    2027    2026    2028    2030
    2027    2026    2028    2178    2033    2026    2028    2178
    2027    2026    2033    2184    2033    2026    2027    2025
    2033    2026    2028    2030    3380    3381    3405    3564
    3379    3381    3405    3564    3380    3381    3405    3563
    3379    3381    3405    3563    3380    3381    3405    3406
    3379    3381    3405    3406    3381    3405    3406    3408
    3381    3405    3406    3410    3563    3405    3406    3410
    3564    3405    3406    3410    3564    3405    3406    3408
    3563    3405    3406    3408    1560    1561    1585    1743
    1560    1561    1585    1744    1559    1561    1585    1743
    1559    1561    1585    1744    1560    1561    1585    1586
    1559    1561    1585    1586    1561    1585    1586    1588
    1561    1585    1586    1590    1743    1585    1586    1588
    1744    1585    1586    1588    1743    1585    1586    1590
    1744    1585    1586    1590    2025    2027    2032    2183
    2025    2027    2032    2182    2026    2027    2032    2182
    2025    2027    2032    2031    2026    2027    2032    2183
    2026    2027    2032    2031    2033    2031    2032    2182
    2181    2031    2032    2183    2181    2031    2032    2182
    2033    2031    2032    2183    2181    2031    2032    2027
    2033    2031    2032    2027     478     479     481     480
     478     479     481     642     483     479     481     480
     482     480     481     479     641     480     481     479
    1585    1586    1590    1589    1588    1586    1590    1749
    1585    1586    1588    1747    1588    1586    1590    1589
    1585    1586    1588    1587    1585    1586    1590    1749
    1590    1586    1588    1747    3384    3387    3388    3390
    3384    3387    3388    3386    3551    3387    3388    3390
    2023    2020    2021    2173    2023    2020    2021    2172
    2172    2021    2022    2174    2020    2021    2022    2175
    2173    2021    2022    2175    2171    2020    2021    2022
    2020    2021    2022    2174    2172    2021    2022    2175
    2023    2020    2021    2022    2173    2021    2022    2174
    2014    2015    2016    2017    2014    2015    2016    2022
    2019    2015    2016    2017    2015    2016    2022    2021
    2163    2015    2016    2022    2164    2016    2017    2166
    2015    2016    2017    2165    2017    2016    2022    2021
    2015    2016    2022    2174    2164    2016    2022    2174
    2015    2016    2017    2018    2015    2016    2022    2175
    2017    2016    2022    2174    2022    2016    2017    2165
    2164    2016    2022    2175    2017    2016    2022    2175
    2163    2015    2016    2017    2022    2016    2017    2166
    2164    2016    2017    2165    2015    2016    2017    2166
    2022    2016    2017    2018    1748    1589    1590    1586
     482     480     481     642     641     480     481     642
     481     480     482     485     481     480     482     484
    2014    2012    2018    2167    2011    2012    2018    2168
    2014    2012    2018    2017    2011    2012    2018    2017
    2014    2012    2018    2168    2011    2012    2018    2167
    2165    2017    2018    2012    2166    2017    2018    2012
    3397    3401    3402    3560    3559    3401    3402    3560
    3397    3401    3402    3400    2026    2028    2030    2029
    2178    2028    2030    2180    2026    2028    2030    2180
    1656    1657    1658    1652    1800    1652    1658    1657
    1809    1657    1658    1652    1808    1657    1658    1652
    1806    1655    1656    1807    1805    1655    1656    1807
    1657    1656    1659    1812    1655    1656    1657    1809
    1655    1656    1657    1808    1807    1656    1659    1812
    1655    1656    1657    1658    1805    1655    1656    1657
    1807    1656    1657    1808    1655    1656    1659    1812
    1806    1655    1656    1657    1807    1656    1657    1809
    1644    1647    1648    1650    2016    2017    2018    2167
    2166    2017    2018    2167    2165    2017    2018    2168
    2165    2017    2018    2167    2164    2016    2017    2018
    2166    2017    2018    2168    2016    2017    2018    2168
    2016    2017    2018    2012    1648    1650    1651    1799
    1649    1650    1651    1799    1648    1650    1651    1655
    1648    1650    1651    1652    1649    1650    1651    1655
    1649    1650    1651    1652    1652    1651    1655    1806
    1650    1651    1655    1806    1652    1651    1655    1656
    1650    1651    1652    1800    1655    1651    1652    1800
    1799    1651    1655    1806    1799    1651    1652    1800
    1655    1651    1652    1658    1799    1651    1655    1805
    1652    1651    1655    1805    1650    1651    1655    1805
    2172    2021    2022    2016    2020    2021    2022    2016
    2173    2021    2022    2016    2164    2016    2022    2021
    1647    1648    1650    1651    1645    1649    1650    1651
    1798    1649    1650    1648    1654    1648    1650    1651
    1798    1649    1650    1651    1647    1648    1654    1803
    1647    1648    1654    1653    1650    1648    1654    1804
    1650    1648    1654    1803    1650    1648    1654    1653
    1647    1648    1654    1804    1802    1653    1654    1648
    1801    1653    1654    1648    1801    1653    1654    1804
    1800    1652    1653    1654    1802    1653    1654    1804
    1652    1653    1654    1804    1802    1653    1654    1803
    1652    1653    1654    1803    1801    1653    1654    1803
    1652    1653    1654    1648    1650    1651    1655    1656
    1651    1655    1656    1807    1799    1651    1655    1656
    1651    1655    1656    1657    1651    1655    1656    1659
    1806    1655    1656    1659    1805    1655    1656    1659
    1644    1647    1648    1654    1797    1647    1648    1654
    1797    1647    1648    1650    1647    1648    1650    1649
    1654    1648    1650    1649    1650    1651    1652    1658
    1650    1651    1652    1653    1651    1652    1653    1654
    1651    1652    1658    1811    1653    1652    1658    1810
    1658    1652    1653    1801    1651    1652    1658    1810
    1653    1652    1658    1811    1658    1652    1653    1802
    1799    1651    1652    1653    1800    1652    1653    1801
    1651    1652    1653    1802    1651    1652    1658    1657
    1655    1651    1652    1653    1799    1651    1652    1658
    1800    1652    1658    1810    1651    1652    1653    1801
    1800    1652    1653    1802    1653    1652    1658    1657
    1800    1652    1658    1811    1658    1652    1653    1654
    1659    1656    1657    1809    1659    1656    1657    1808
    1809    1657    1658    1810    1807    1656    1657    1658
    1656    1657    1658    1810    1808    1657    1658    1811
    1659    1656    1657    1658    1808    1657    1658    1810
    1656    1657    1658    1811    1809    1657    1658    1811
    3559    3401    3402    3400    3558    3400    3402    3401
    1080     929     930     924    1081     929     930     924
    1072     924     930     929     928     929     930     924
     931     928     929    1080     931     928     929    1081
    1081     929     930    1083    1079     928     929     930
    1081     929     930    1082     928     929     930    1083
    1080     929     930    1082     928     929     930    1082
     931     928     929     930    1080     929     930    1083
    1077     927     928    1079    1078     927     928    1079
    1079     928     931    1084    1077     927     928     929
     927     928     929     930     927     928     931    1084
    1079     928     929    1081    1078     927     928     929
     927     928     929    1081     929     928     931    1084
    1079     928     929    1080     927     928     929    1080
    1520    1522    1524    1529    1520    1522    1524    1523
    1522    1524    1529    1548    1523    1524    1529    1548
     921     922     923     924     920     922     923     927
     920     922     923     924     921     922     923    1071
     920     922     923    1071     921     922     923     927
     927     923     924    1072     927     923     924     930
     922     923     924    1072     924     923     927    1078
     922     923     927    1078     924     923     927    1077
    1071     923     927    1078     922     923     927    1077
    1071     923     924    1072    1071     923     927    1077
     924     923     927     928     922     923     927     928
     923     927     928    1079     923     927     928     929
    1071     923     927     928     923     927     928     931
    1077     927     928     931    1078     927     928     931
     922     923     924     930     922     923     924     925
     925     924     930    1082    1072     924     925    1074
     930     924     925    1074     923     924     925     926
    1072     924     925    1073     923     924     930     929
     925     924     930     929     930     924     925    1073
    1071     923     924     930    1071     923     924     925
     923     924     925    1074    1072     924     930    1083
     927     923     924     925     923     924     930    1083
     923     924     925    1073     925     924     930    1083
    1072     924     930    1082     923     924     930    1082
     930     924     925     926    1519    1523    1524    1529
    1519    1523    1524    1522    1708    1523    1524    1529
    1708    1523    1524    1522    1111    1112    1114    1113
    1116    1112    1114    1130    1111    1112    1116    1315
    1111    1112    1116    1117    1114    1112    1116    1315
    1114    1112    1116    1117    1111    1112    1114    1130
    1459    1457    1461    1462    1670    1457    1461    1671
    1461    1457    1459    1474    1459    1457    1461    1671
    1670    1457    1459    1474    1315    1116    1117    1316
    1112    1116    1117    1316    1112    1116    1117    1115
    1457    1461    1462    1460    1670    1457    1461    1462
    1457    1461    1462    1472    1645    1649    1650    1648
     919     920     922     923     917     921     922     923
    1070     921     922     920     926     920     922     923
    1070     921     922     923    1072     924     925     926
     924     925     926    1075    1074     925     926    1076
    1073     925     926    1075     924     925     926    1076
    1074     925     926    1075    1073     925     926    1076
     924     925     926     920    1113    1114    1130    1325
    1118    1113    1114    1112    1115    1113    1114    1112
    1116    1112    1114    1113    1112    1114    1130    1325
    1644    1645    1649    1798    1644    1645    1649    1650
    1644    1645    1646    1796    1646    1645    1649    1650
    1649    1645    1646    1796    1646    1645    1649    1798
    1647    1644    1645    1646    1649    1645    1646    1641
    1644    1645    1646    1641    1507    1509    1517    1705
    1507    1509    1517    1518    1507    1509    1517    1704
    1508    1509    1517    1705    1508    1509    1517    1518
    1508    1509    1517    1704    1704    1517    1518    1706
    1704    1517    1518    1707    1509    1517    1518    1706
    1509    1517    1518    1519    1705    1517    1518    1706
    1509    1517    1518    1707    1705    1517    1518    1707
    1521    1519    1523    1708    1518    1519    1523    1708
    1518    1519    1521    1525    1518    1519    1521    1520
    1521    1519    1523    1524    1518    1519    1523    1524
    3369    3374    3375    3376    3369    3374    3375    3548
    3369    3374    3375    3547    3374    3375    3376    3378
    3374    3375    3376    3380    3548    3375    3376    3378
    3547    3375    3376    3380    3547    3375    3376    3378
    3548    3375    3376    3380    1564    1557    1559    1561
    1557    1559    1561    1560    1553    1551    1594    1593
    1553    1551    1594    1755    1553    1551    1594    1754
    1549    1551    1594    1593    1549    1551    1594    1755
    1549    1551    1594    1754    1753    1593    1594    1551
    1558    1557    1559    1561    1559    1557    1564    1567
    1558    1557    1559    1729    1559    1557    1564    1563
    1558    1557    1564    1563    1558    1557    1564    1567
    1559    1557    1558    1562    1564    1557    1559    1729
    1564    1557    1558    1562     916     919     920     926
    1069     919     920     926    1069     919     920     922
     919     920     922     921     926     920     922     921
    1524    1529    1548    1550    1524    1529    1548    1552
    1552    1548    1550    1725    1550    1548    1552    1726
    1550    1548    1552    1553    3384    3377    3379    3549
    3378    3377    3384    3383    3378    3377    3384    3387
    3378    3377    3379    3381    3379    3377    3384    3383
    3379    3377    3384    3387    3378    3377    3379    3549
    3379    3377    3378    3382    3384    3377    3378    3382
    1562    1563    1565    1566    1562    1563    1565    1730
    1563    1565    1566    1569    1563    1565    1566    1568
    1730    1565    1566    1569    1558    1562    1563    1564
    1558    1562    1563    1565    1564    1563    1565    1730
    1565    1563    1564    1567    1564    1563    1565    1566
    1529    1548    1552    1553    1529    1548    1552    1726
    1548    1552    1553    1551    3550    3385    3386    3388
    3388    3386    3389    3552    3385    3386    3388    3387
    3385    3386    3389    3552    3385    3386    3388    3390
    3382    3383    3384    3387    3377    3384    3387    3551
    3385    3383    3384    3377    3383    3384    3387    3388
    3383    3384    3387    3551    3382    3383    3384    3377
    3377    3384    3387    3388    3389    3386    3388    3390
    3551    3387    3388    3386    3386    3388    3390    3391
    3387    3388    3390    3391    3389    3386    3388    3387
    1529    1548    1550    1549    1529    1548    1550    1725
    1554    1549    1550    1725    1551    1549    1550    1548
    1552    1548    1550    1549    1554    1549    1550    1548
    3378    3382    3383    3384    3378    3382    3383    3385
    3384    3383    3385    3386    3384    3383    3385    3550
    3385    3383    3384    3387    1558    1556    1560    1584
    1560    1556    1558    1562    1558    1556    1560    1561
    1555    1556    1560    1584    1555    1556    1558    1557
    1555    1556    1560    1561    1555    1556    1558    1562
    3376    3380    3404    3562    3381    3380    3404    3562
    3376    3380    3381    3379    3376    3378    3382    3383
    3377    3378    3382    3383    3380    3376    3378    3377
    3384    3377    3378    3376    3379    3377    3378    3376
    3380    3376    3378    3382    3375    3376    3378    3382
    3375    3376    3380    3404    3375    3376    3378    3377
    3375    3376    3380    3381    3378    3376    3380    3404
    3378    3376    3380    3381    1549    1554    1555    1556
    1549    1554    1555    1728    1549    1554    1555    1727
    1554    1555    1556    1558    1554    1555    1556    1560
    1727    1555    1556    1560    1727    1555    1556    1558
    1728    1555    1556    1560    1728    1555    1556    1558
    1557    1559    1561    1585    1584    1560    1561    1585
    1556    1560    1561    1585    1729    1559    1561    1560
    1729    1559    1561    1585    1584    1560    1561    1559
    1561    1560    1584    1742    1556    1560    1584    1742
    1556    1560    1561    1559    1551    1549    1550    1725
    1550    1549    1551    1553    1550    1549    1554    1555
    1551    1549    1554    1555    3382    3383    3385    3550
    3382    3383    3385    3386    3383    3385    3386    3388
    3383    3385    3386    3389    3550    3385    3386    3389
    1556    1558    1562    1563    1560    1556    1558    1557
    1564    1557    1558    1556    1559    1557    1558    1556
    1557    1558    1562    1563     922     920     926    1076
     919     920     926    1076     922     920     926     925
     919     920     926    1075     919     920     926     925
     922     920     926    1075    1073     925     926     920
    1074     925     926     920    1554    1549    1551    1594
    1550    1549    1551    1594    1549    1551    1553    1552
    1554    1549    1551    1553    1594    1551    1553    1552
    3358    3359    3361    3362    3358    3359    3361    3538
    3359    3361    3362    3364    3359    3361    3362    3365
    3538    3361    3362    3365    3353    3358    3359    3360
    3353    3358    3359    3361    3537    3358    3359    3361
    3360    3359    3361    3362    3537    3358    3359    3360
    3360    3359    3361    3538    3361    3359    3360    3363
     487     485     489     647     482     485     489     490
     482     485     487     486     487     485     489     490
     482     485     489     647     482     485     487     645
     489     485     487     645     491     486     487     645
     491     486     487     485     488     486     487     485
     489     485     487     486    3358    3353    3355    3360
    3358    3353    3355    3357    3353    3355    3360    3359
    3360    3355    3357    3536    3353    3355    3357    3356
    3353    3355    3360    3363    3353    3355    3357    3536
    3357    3355    3360    3359    3357    3355    3360    3363
    3358    3359    3360    3363    3361    3359    3360    3355
    3355    3360    3363    3364    3358    3359    3360    3355
    3359    3360    3363    3364    3262    3111    3112    3263
    3261    3111    3112    3263    3111    3112    3113    3264
    3111    3112    3115    3268    3111    3112    3113    3114
    3263    3112    3115    3268    3261    3111    3112    3113
    3263    3112    3113    3265    3262    3111    3112    3113
    3113    3112    3115    3268    3263    3112    3113    3264
    3111    3112    3113    3265    3355    3353    3354    3367
    3355    3353    3358    3359    3354    3353    3355    3357
    3354    3353    3358    3359    3354    3353    3355    3360
    3354    3353    3358    3537    3358    3353    3354    3367
    3355    3353    3358    3537    3364    3362    3365    3540
    3361    3362    3364    3363    3361    3362    3364    3539
    3538    3361    3362    3364    3361    3362    3365    3540
    3115    3112    3113    3265    3115    3112    3113    3264
    3115    3112    3113    3114    3264    3113    3114    3267
    3263    3112    3113    3114    3265    3113    3114    3266
    3112    3113    3114    3267    3264    3113    3114    3266
    3265    3113    3114    3267    3112    3113    3114    3266
    3365    3362    3364    3539    3365    3362    3364    3363
    3355    3360    3363    3366    3359    3360    3363    3366
    3366    3363    3364    3539    3360    3363    3364    3539
    3360    3363    3364    3362    3366    3363    3364    3362
    3106    3107    3111    3112    3107    3111    3112    3115
    3107    3111    3112    3113    3255    3107    3111    3112
    3107    3111    3112    3263    3262    3111    3112    3115
    3261    3111    3112    3115     647     489     490     488
     646     488     490     489     480     482     484     483
     485     482     484     644     480     482     485     487
     480     482     485     489     641     480     482     484
     480     482     484     644     641     480     482     485
     484     482     485     487     484     482     485     489
     485     489     490     488     485     489     490     648
     647     489     490     648     485     482     484     483
     643     483     484     482    3112    3113    3114    3108
    3265    3113    3114    3108    3256    3108    3114    3113
    3264    3113    3114    3108    3106    3107    3108    3114
    3106    3107    3108    3109    3109    3108    3114    3113
    3107    3108    3109    3258    3256    3108    3114    3267
    3107    3108    3114    3113    3107    3108    3109    3257
    3256    3108    3109    3257    3114    3108    3109    3257
    3109    3108    3114    3267    3255    3107    3108    3109
    3256    3108    3109    3258    3114    3108    3109    3258
    3107    3108    3109    3110    3107    3108    3114    3267
    3109    3108    3114    3266    3111    3107    3108    3109
    3107    3108    3114    3266    3255    3107    3108    3114
    3256    3108    3114    3266    3114    3108    3109    3110
    3360    3355    3357    3356    3535    3356    3357    3355
     487     486     488     490     487     486     491     649
     488     486     487     645     488     486     491     649
     487     486     488     646     491     486     488     646
     646     488     490     648     491     486     488     490
     486     488     490     648     486     488     490     489
    3103    3104    3110    3260    3106    3104    3110    3109
    3106    3104    3110    3260    3103    3104    3110    3109
    3106    3104    3110    3259    3103    3104    3110    3259
    3258    3109    3110    3104    3257    3109    3110    3104
    3410    3406    3408    3407    1514    1512    1513    1516
    1514    1512    1513    1511     888     933     937    1087
     888     933     937     938     933     937     938     936
     933     937     938    1088    1087     937     938    1088
     748     752     753     952     748     752     753     751
     951     752     753     952    1509    1507    1510    1511
    1505    1507    1509    1508    1695    1505    1507    1509
    1505    1507    1510    1511    1831    1832    1834    1833
    1831    1832    1834    1856    2037    1832    1834    1856
    1086     936     938     937    1087     937     938     936
    1833    1834    1856    2050    1835    1833    1834    1832
    1832    1834    1856    2050    2037    1832    1834    1833
    1832    1834    1856    2051    1833    1834    1856    2051
     754     755     757     761     751     756     757     761
     763     755     757     761     763     755     757     756
     753     751     756     758     749     751     756     758
     751     756     757     755     758     756     757     761
     758     756     757     755    1036     872     873    1038
    1037     872     873    1038     868     872     873     874
     868     872     873    1039    1036     872     873    1039
    1037     872     873    1039     868     872     873    1038
    1029     868     872     873     758     759     871     867
     760     759     871     867     955     759     871     867
    1028     867     871     759     863     864     867     868
     864     867     868    1029     864     867     871    1034
    1028     867     868    1029     871     867     868     872
    1024     864     867     871     864     867     868     872
     864     867     868     869     871     867     868    1029
    1024     864     867     868    1028     867     871    1034
     868     867     871    1035     864     867     871    1035
     868     867     871    1034    1028     867     871    1035
     864     867     871     759     868     867     871     759
     756     751     753     752     951     752     753     751
    1036     872     873     874     872     873     874     876
     872     873     874     878    1037     872     873     874
    1039     873     874     878    1039     873     874     876
    1038     873     874     878    1038     873     874     876
    1513    1511    1515    1514    1510    1511    1515    1700
    1510    1511    1515    1514     749     751     753     952
     756     751     753     952     749     751     753     752
     749     751     756     757     753     751     756     757
     754     749     751     753     757     755     763     768
     754     755     763     768     754     755     757     756
    1507    1510    1511    1513    1507    1510    1511    1515
    1513    1511    1515    1700     751     756     758     953
     751     756     758     759     757     756     758     953
     751     756     758     954     757     756     758     759
     757     756     758     954     756     758     759     955
     953     758     759     955     756     758     759     871
     954     758     759     955     756     758     759     760
     953     758     759     871     758     759     871    1035
     760     759     871    1035     953     758     759     760
     760     759     871    1034     954     758     759     760
     758     759     760     762     955     759     871    1035
     758     759     760     761     758     759     871    1034
     954     758     759     871     955     759     871    1034
     955     759     760     762     955     759     760     761
     871     759     760     762     871     759     760     761
     756     757     761     957     755     757     761     760
     756     757     761     760     755     757     761     956
     756     757     761     956     755     757     761     957
     759     760     761     957     762     760     761     957
     759     760     761     956     762     760     761     956
     759     760     761     757     762     760     761     757
    1086     936     938    1088     934     936     938    1088
     934     936     938     937    1697    1512    1514    1699
    1513    1512    1514    1515    1697    1512    1514    1698
    1513    1512    1514    1699    1513    1512    1514    1698
    1698    1514    1515    1700    1512    1514    1515    1700
    1699    1514    1515    1700    1697    1512    1514    1515
    1698    1514    1515    1511    1699    1514    1515    1511
    1512    1514    1515    1511    1510    1511    1513    1512
    1510    1511    1513    1516    1515    1511    1513    1516
    1515    1511    1513    1512    1697    1512    1513    1511
    1697    1512    1513    1516     750     749     751     753
     754     749     751     756     750     749     754     755
     750     749     751     756     754     749     750     766
     751     749     750     766     751     749     754     755
     942     729     731     730     729     731     746     948
     733     729     731     730     730     731     746     948
     735     730     731     729     732     730     731     729
     735     730     731     746     731     730     735     745
     731     730     735     736     732     730     735     745
     731     730     732     737     732     730     735     736
     735     730     732     737     731     730     732     734
     732     730     731     746     730     735     736     944
     730     735     736     738     730     735     745     947
     736     735     745     947     733     729     731     746
     731     729     733     734     942     729     733     943
     731     729     733     943     942     729     731     746
    1523    1519    1521    1525    1522    1520    1521    1525
    1530    1520    1521    1525    1523    1519    1521    1520
    1522    1520    1521    1519    1530    1520    1521    1519
     735     730     732     734     730     732     737     741
     737     732     734     744     730     732     734     744
     730     732     734     733     730     732     737     738
     734     732     737     741     734     732     737     738
     745     735     736     944     745     735     736     738
     735     736     738     737     735     736     738     739
    3525    3337    3338    3339    3337    3338    3339    3341
    3337    3338    3339    3343    3524    3337    3338    3339
    3527    3338    3339    3343    3527    3338    3339    3341
    3526    3338    3339    3341    3526    3338    3339    3343
    1512    1513    1516    1703    1511    1513    1516    1702
    1512    1513    1516    1702    1511    1513    1516    1701
    1512    1513    1516    1701    1511    1513    1516    1703
    1521    1520    1522    1524    1521    1520    1530    1531
    1522    1520    1530    1531    1530    1520    1522    1524
    1519    1521    1525    1710    1520    1521    1525    1711
    1520    1521    1525    1710    1520    1521    1525    1709
    1519    1521    1525    1709    1519    1521    1525    1711
     729     733     734     732     942     729     733     734
     729     733     734     744     944     736     738     737
     737     738     739     740     944     736     738     739
     741     737     738     736     736     738     739     740
     741     737     738     739    1181    1178    1180    1355
    1181    1178    1180    1179    1354    1177    1178    1180
    1180    1178    1181    1356    1177    1178    1181    1356
    1177    1178    1180    1179    1177    1178    1180    1355
    3339    3343    3344    3349    3339    3343    3344    3342
    3528    3343    3344    3342    3528    3343    3344    3349
    1505    1507    1509    1517    1510    1507    1509    1517
    1504    1508    1509    1517    1503    1508    1509    1517
    1504    1508    1509    1507    1510    1507    1509    1508
    1704    1517    1518    1519    1705    1517    1518    1519
    1517    1518    1519    1521    1517    1518    1519    1523
    1706    1518    1519    1523    1706    1518    1519    1521
    1707    1518    1519    1521    1707    1518    1519    1523
    3349    3368    3372    3373    3349    3368    3372    3546
    3368    3372    3373    3371    3416    3417    3418    3413
    3579    3417    3418    3413    3578    3417    3418    3413
    3573    3413    3418    3417    3372    3373    3411    3412
    3371    3373    3411    3412    3372    3373    3411    3570
    3372    3373    3411    3571    3371    3373    3411    3571
    3371    3373    3411    3570    3373    3411    3412    3572
    3414    3413    3418    3581    3412    3413    3414    3574
    3573    3413    3418    3581    3414    3413    3418    3580
    3412    3413    3418    3580    3412    3413    3414    3575
    3418    3413    3414    3575    3412    3413    3418    3581
    3572    3412    3413    3414    3418    3413    3414    3574
    3572    3412    3413    3418    3573    3413    3414    3575
    3414    3413    3418    3417    3412    3413    3418    3417
    3573    3413    3414    3574    3573    3413    3418    3580
    3412    3413    3414    3371    3418    3413    3414    3371
    3374    3369    3371    3414    3370    3369    3371    3414
    3369    3371    3373    3372    3374    3369    3371    3373
    3414    3371    3373    3372    3344    3349    3368    3370
    3344    3349    3368    3372    3372    3368    3370    3545
    3370    3368    3372    3373    3370    3368    3372    3546
    3341    3340    3342    3344    3341    3340    3350    3351
    3342    3340    3350    3351    3350    3340    3342    3344
    3341    3339    3343    3528    3338    3339    3341    3345
    3341    3339    3343    3344    3338    3339    3341    3340
    3338    3339    3343    3528    3338    3339    3343    3344
    3373    3371    3414    3574    3369    3371    3414    3413
    3373    3371    3414    3575    3369    3371    3414    3574
    3373    3371    3414    3413    3369    3371    3414    3575
    3573    3413    3414    3371    3369    3371    3373    3411
    3368    3372    3373    3411    3546    3372    3373    3411
    3414    3371    3373    3411    3546    3372    3373    3371
    3354    3352    3356    3535    3351    3352    3354    3367
    3351    3352    3354    3353    3356    3352    3354    3367
    3351    3352    3356    3357    3351    3352    3356    3535
    3354    3352    3356    3357    1520    1530    1531    1714
    1520    1530    1531    1713    1520    1530    1531    1532
    1530    1531    1532    1534    1530    1531    1532    1536
    1713    1531    1532    1534    1714    1531    1532    1534
    1714    1531    1532    1536    1713    1531    1532    1536
    3343    3339    3341    3345    3342    3340    3341    3345
    3350    3340    3341    3345    3343    3339    3341    3340
    3342    3340    3341    3339    3350    3340    3341    3339
    3349    3368    3370    3369    3349    3368    3370    3545
    3374    3369    3370    3545    3374    3369    3370    3368
    3371    3369    3370    3368    3372    3368    3370    3369
    3339    3341    3345    3529    3340    3341    3345    3530
    3339    3341    3345    3531    3340    3341    3345    3529
    3339    3341    3345    3530    3340    3341    3345    3531
    3340    3350    3351    3534    3340    3350    3351    3533
    3340    3350    3351    3352    3350    3351    3352    3354
    3350    3351    3352    3356    3534    3351    3352    3354
    3533    3351    3352    3354    3534    3351    3352    3356
    3533    3351    3352    3356    3340    3342    3344    3349
    3340    3342    3344    3343    3342    3344    3349    3368
    3343    3344    3349    3368    3371    3369    3374    3375
    3370    3369    3374    3375    3371    3369    3370    3545
    3370    3369    3371    3373    3352    3354    3367    3544
    3353    3354    3367    3544    3356    3352    3354    3353
    3358    3353    3354    3352    3355    3353    3354    3352
    3535    3356    3357    3536    3352    3356    3357    3536
    3352    3356    3357    3355    3571    3411    3412    3572
    3373    3411    3412    3413    3373    3411    3412    3415
    3570    3411    3412    3572    3411    3412    3415    3419
    3411    3412    3413    3573    3413    3412    3415    3419
    3411    3412    3413    3418    3571    3411    3412    3413
    3411    3412    3415    3576    3570    3411    3412    3415
    3572    3412    3415    3576    3413    3412    3415    3416
    3415    3412    3413    3573    3570    3411    3412    3413
    3571    3411    3412    3415    3413    3412    3415    3576
    3411    3412    3413    3414    3572    3412    3413    3573
    3415    3412    3413    3418    3415    3412    3413    3414
     822     821     823     825     822     821     826     827
     823     821     822     997     823     821     826     827
     826     821     823     866     822     821     823     866
     826     821     823     825     821     823     825     824
     866     823     825     824     821     826     827     828
     821     826     827     999     821     826     827    1000
     826     827     828     832     826     827     828     830
    1000     827     828     832    1000     827     828     830
     999     827     828     832     999     827     828     830
     821     823     825     863     820     824     825     863
     866     823     825     863     998     824     825     823
     998     824     825     863    3433    3440    3441    3597
    3433    3440    3441    3439    3596    3440    3441    3597
     801     820     824     825     801     820     824     998
     820     824     825     823    3591    3434    3435    3433
    3440    3433    3435    3434     830     828     832     833
     832     828     830     834     827     828     830     834
     827     828     832     856     830     828     832     856
     827     828     830     829     827     828     832     833
    3100    3103    3104    3110    3103    3104    3106    3105
    3253    3103    3104    3110    3253    3103    3104    3106
    3110    3104    3106    3105     801     820     822     997
     801     820     822     821     826     821     822     997
     826     821     822     820     824     820     822     821
     823     821     822     820     824     825     863    1022
     823     825     863    1023     823     825     863    1022
     824     825     863     864     823     825     863     864
     824     825     863    1023     825     863     864    1024
     834     835     837    1002     834     835     837     838
     835     837     838     840     835     837     838     841
    1002     837     838     841     825     823     866    1026
     825     823     866     865     821     823     866    1026
     825     823     866    1027     821     823     866    1027
     821     823     866     865    1025     865     866     823
    3108    3109    3110    3260    3258    3109    3110    3259
    3108    3109    3110    3259    3257    3109    3110    3260
    3258    3109    3110    3260    3257    3109    3110    3259
    3256    3108    3109    3110    3108    3109    3110    3104
    3103    3104    3106    3107    3101    3105    3106    3107
    3110    3104    3106    3107    3254    3105    3106    3107
    3254    3105    3106    3104    3596    3440    3441    3439
    3444    3439    3441    3440    3104    3106    3107    3255
    3105    3106    3107    3255    3104    3106    3107    3111
    3105    3106    3107    3111    3104    3106    3107    3108
    3105    3106    3107    3108    3106    3107    3111    3262
    3111    3107    3108    3256    3108    3107    3111    3261
    3255    3107    3111    3262    3255    3107    3108    3256
    3108    3107    3111    3112    3111    3107    3108    3114
    3106    3107    3108    3256    3106    3107    3111    3261
    3108    3107    3111    3262    3255    3107    3111    3261
     796     801     820     824     796     801     820     822
     822     820     824     825     822     820     824     998
     824     820     822     997    3432    3433    3440    3441
    3432    3433    3435    3434    3432    3433    3440    3596
    3438    3432    3433    3435    3432    3433    3435    3592
    3435    3433    3440    3441    3435    3433    3440    3596
    3440    3433    3435    3592    3430    3434    3435    3433
    3591    3434    3435    3592    3430    3434    3435    3592
    3289    3291    3313    3508    3292    3291    3313    3508
    3289    3291    3292    3494     864     865     866    1027
     866     865     870    1033     864     865     870    1033
    1024     864     865     870    1025     865     866    1026
     864     865     870    1032    1025     865     866    1027
     870     865     866    1027    1025     865     870    1033
     870     865     866    1026    1025     865     870    1032
     864     865     866    1026    1024     864     865     866
     866     865     870     869     864     865     870     869
     866     865     870    1032     870     865     866     823
     864     865     866     823    2573    2571    2576    2577
    2569    2571    2573    2772    2569    2571    2573    2572
    2569    2571    2576    2577    2574    2569    2571    2573
    2576    2571    2573    2772    2507    2352    2353    2508
    2347    2352    2353    2351    2347    2352    2353    2508
     867     868     869     870     867     868     872     873
     872     868     869    1031    1029     868     872    1037
    1029     868     869    1031     869     868     872     873
    1029     868     872    1036     867     868     872    1037
    1028     867     868     872     867     868     869    1031
    1029     868     869    1030     867     868     872    1036
     869     868     872    1037     871     867     868     869
     867     868     869    1030     869     868     872    1036
     872     868     869    1030    1028     867     868     869
     872     868     869     870    1023     863     864    1024
     825     863     864     867     825     863     864     865
    1022     863     864    1024     863     864     865     866
    1023     863     864     865    1022     863     864     867
    1022     863     864     865    1023     863     864     867
     863     864     867     871     865     864     867    1028
     863     864     865    1025    1024     864     867    1028
     867     864     865     870     865     864     867     871
     863     864     865     870     863     864     867    1028
    1024     864     865    1025     865     864     867     868
     867     864     865    1025     867     864     865     866
     771     769     774     966     770     769     774     966
     770     769     771     773     771     769     770     965
     770     769     771     775    2570    2569    2574    2587
    2571    2569    2574    2587    2569    2574    2575    2577
    2569    2574    2575    2583    2587    2574    2575    2577
    2587    2574    2575    2583    2507    2352    2353    2351
    2569    2570    2586    2781    2574    2569    2570    2568
    2572    2568    2570    2569    2571    2569    2570    2568
    2568    2570    2586    2781     755     763     768     770
     755     763     768     772     772     768     770     965
     770     768     772     773     774     769     771     775
     775     771     773     776     769     771     773     772
     769     771     775     778     769     771     775     780
     769     771     773     776     773     771     775     778
     773     771     775     780     774     769     771     773
    1030     869     870     865    1025     865     870     869
     868     869     870     865    1031     869     870     865
    2570    2569    2571    2576    2571    2569    2570    2586
    2571    2569    2574    2575    2570    2569    2571    2573
    2570    2569    2574    2575    2574    2569    2570    2586
    2574    2569    2571    2576    1031     869     870    1033
    1029     868     869     870     868     869     870    1032
    1031     869     870    1032     868     869     870    1033
    1030     869     870    1033    1030     869     870    1032
    2362    2361    2367    2518    2357    2361    2367    2518
    2357    2361    2367    2517    2357    2361    2367    2519
    2362    2361    2367    2517    2362    2361    2367    2519
    2569    2574    2587    2782    2569    2574    2587    2784
    2575    2574    2587    2782    2575    2574    2587    2784
    2569    2574    2587    2783    2575    2574    2587    2783
     763     768     770     965     763     768     770     769
     774     769     770     965     774     769     770     768
     771     769     770     768     772     768     770     769
    2359    2357    2361    2367    2367    2361    2362    2368
    2357    2361    2362    2360    2367    2361    2362    2360
     747     748     750     766     750     748     752     951
     750     748     752     753     752     748     750     766
     747     748     750     749     747     748     752     951
     747     748     752     753     780     775     778     777
     967     777     778     775     779     777     778     775
     750     749     754     767     751     749     754     767
     749     754     755     763     749     754     755     757
     767     754     755     763     767     754     755     757
    3311    3316    3318    3513    3311    3316    3318    3317
    3322    3317    3318    3513    3322    3317    3318    3316
    3319    3317    3318    3316    3320    3316    3318    3317
    3322    3317    3319    3323    3317    3319    3323    3326
    3322    3317    3319    3321    3323    3319    3321    3324
    3317    3319    3321    3320    3317    3319    3321    3324
    3321    3319    3323    3326    3321    3319    3323    3328
    3317    3319    3323    3328    3318    3317    3319    3321
    3319    3317    3322    3514    3318    3317    3319    3323
    3318    3317    3322    3514    3319    3317    3318    3513
    3303    3311    3316    3318    3303    3311    3316    3320
    3320    3316    3318    3513    3318    3316    3320    3321
    3319    3321    3324    3328    3320    3321    3324    3328
    3323    3319    3321    3320    3319    3323    3326    3325
    3319    3323    3326    3516    3326    3323    3328    3329
    3328    3323    3326    3516    3319    3323    3328    3329
    3319    3323    3328    3324    3326    3323    3328    3324
    3321    3324    3328    3329    3321    3324    3328    3323
    3323    3328    3329    3327    3327    3325    3326    3323
    3515    3325    3326    3323    3328    3323    3326    3325
    3327    3325    3326    3516    3326    3325    3327    3329
    3326    3325    3327    3330    3515    3325    3326    3516
    3515    3325    3327    3330    3311    3316    3320    3321
    3311    3316    3320    3346    3318    3316    3320    3346
    3316    3320    3321    3324    3316    3320    3321    3319
    3346    3320    3321    3324    3346    3320    3321    3319
    2568    2572    2573    2571    2771    2572    2573    2772
    2568    2572    2573    2772    3325    3327    3329    3337
    3330    3327    3329    3337    3324    3328    3329    3337
    3324    3328    3329    3327    3323    3328    3329    3337
    3330    3327    3329    3328     738     739     747     949
     740     739     747     950     738     739     747     748
     738     739     747     950     740     739     747     748
     740     739     747     949     739     747     748     750
     739     747     748     752     950     747     748     752
     950     747     748     750     949     747     748     752
     949     747     748     750    2558    2559    2567    2769
    2560    2559    2567    2770    2558    2559    2567    2568
    2558    2559    2567    2770    2560    2559    2567    2769
    2560    2559    2567    2568    2559    2567    2568    2570
    2559    2567    2568    2572    2769    2567    2568    2570
    2770    2567    2568    2572    2770    2567    2568    2570
    2769    2567    2568    2572    3325    3327    3329    3328
    3325    3327    3330    3331    3329    3327    3330    3331
    3515    3325    3327    3329    3089    3090    3096    3248
    3088    3090    3096    3249    3089    3090    3096    3250
    3088    3090    3096    3248    3089    3090    3096    3249
    3088    3090    3096    3250     755     754     767     963
     749     754     767     962     749     754     767     964
     755     754     767     962     755     754     767     964
     749     754     767     963    2559    2560    2562    2584
    2559    2560    2562    2561    2765    2560    2562    2584
    3328    3329    3337    3524    3327    3329    3337    3525
    3327    3329    3337    3338    3328    3329    3337    3525
    3328    3329    3337    3338    3327    3329    3337    3524
    3525    3337    3338    3526    3524    3337    3338    3527
    3329    3337    3338    3527    3329    3337    3338    3526
    3329    3337    3338    3339    3524    3337    3338    3526
    3525    3337    3338    3527    2360    2370    2388    2541
    2360    2370    2371    2369    2371    2370    2388    2541
    2360    2370    2371    2523    2358    2360    2362    2368
    2357    2361    2362    2368    2370    2360    2362    2368
    2370    2360    2362    2361     737     738     739     747
     736     738     739     747     747     739     740     945
     738     739     740     945     738     739     740     742
     747     739     740     742    2576    2571    2573    2572
    2771    2572    2573    2571    2360    2362    2368    2522
    2360    2362    2368    2521    2361    2362    2368    2521
    2361    2362    2368    2520    2361    2362    2368    2522
    2360    2362    2368    2520    2572    2568    2570    2586
    2567    2568    2572    2771    2567    2568    2572    2573
    2567    2568    2570    2586    2570    2568    2572    2771
    2567    2568    2570    2569    2570    2568    2572    2573
    2556    2558    2559    2567    2557    2558    2559    2567
    2567    2559    2560    2765    2558    2559    2560    2562
    2558    2559    2560    2765    2567    2559    2560    2562
    3090    3089    3095    3246    3090    3089    3095    3245
    3090    3089    3095    3247    3085    3089    3095    3245
    3085    3089    3095    3247    3085    3089    3095    3246
     752     748     750     749     748     750     766     961
     754     749     750     748     751     749     750     748
     749     750     766     961    3493    3288    3290    3289
    3289    3290    3312    3507    3289    3290    3312    3506
    3288    3290    3312    3507    3291    3289    3290    3288
    3288    3290    3312    3506    3278    3283    3293    3495
    3284    3283    3293    3495    3278    3283    3284    3492
    3278    3283    3284    3286    3302    3297    3298    3296
    3300    3296    3298    3297    3299    3297    3298    3296
    3297    3298    3314    3509    3296    3298    3314    3509
    3295    3296    3300    3499    3298    3296    3300    3499
    3295    3296    3300    3301    3298    3296    3300    3301
    3295    3296    3298    3314    3300    3296    3298    3314
    3295    3296    3298    3297    3280    3278    3279    3294
    3280    3278    3283    3293    3280    3278    3283    3284
    3279    3278    3280    3282    3279    3278    3283    3293
    3283    3278    3279    3294    3279    3278    3283    3284
    3279    3278    3280    3285    3283    3278    3280    3285
    3293    3283    3284    3492    3283    3284    3286    3285
    3283    3284    3286    3287    3293    3283    3284    3286
    3321    3320    3346    3347    3321    3320    3346    3348
    3316    3320    3346    3348    3316    3320    3346    3347
    3347    3346    3348    3532    3320    3346    3348    3532
    3091    3092    3094    3100    3091    3092    3094    3093
    3243    3091    3092    3094    3097    3093    3094    3100
    3086    3093    3097    3102    3094    3093    3097    3102
    3086    3093    3094    3092    3086    3093    3097    3099
    3094    3093    3097    3099    3086    3093    3094    3100
    3277    3281    3282    3292    3277    3281    3282    3280
    3490    3277    3281    3282    3290    3289    3291    3292
    3291    3289    3290    3312    3285    3289    3290    3288
    3285    3289    3291    3313    3285    3289    3291    3292
    3290    3289    3291    3313    3285    3289    3290    3312
    3287    3288    3290    3312    3287    3288    3290    3289
    3493    3288    3290    3312    3116    3098    3099    3251
    3116    3098    3099    3097    3102    3097    3099    3098
    3088    3098    3116    3269    3088    3098    3099    3097
    3099    3098    3116    3269    3088    3098    3099    3251
    3280    3282    3292    3494    3281    3282    3292    3494
    3280    3282    3292    3291    3281    3282    3292    3291
    3285    3280    3282    3281    3491    3281    3282    3280
    3491    3281    3282    3292    3288    3287    3295    3498
    3286    3287    3295    3498    3288    3287    3295    3497
    3286    3287    3295    3497    3288    3287    3295    3296
    3286    3287    3295    3296    3287    3295    3296    3298
    3287    3295    3296    3300    3498    3295    3296    3298
    3497    3295    3296    3298    3497    3295    3296    3300
    3498    3295    3296    3300    3093    3094    3100    3103
    3244    3092    3094    3100    3244    3092    3094    3093
    3097    3093    3094    3092    3092    3094    3100    3101
    3092    3094    3100    3103    3093    3094    3100    3101
    3280    3285    3289    3291    3280    3285    3289    3290
    3286    3285    3289    3290    3280    3285    3286    3284
    3286    3285    3289    3291    3280    3285    3286    3287
    3086    3088    3090    3096    3085    3089    3090    3096
    3098    3088    3090    3096    3098    3088    3090    3089
    3100    3101    3102    3252    3102    3101    3105    3254
    3103    3100    3101    3102    3105    3101    3102    3252
    3102    3101    3105    3106    3100    3101    3105    3254
    3100    3101    3105    3106    3105    3101    3102    3097
    3100    3101    3102    3097    3086    3088    3090    3089
    3093    3086    3088    3090    3090    3088    3098    3116
    3086    3088    3098    3099    3086    3088    3098    3116
    3090    3088    3098    3099    3088    3086    3093    3097
    3087    3086    3088    3098    3087    3086    3093    3094
    3088    3086    3093    3094    3093    3086    3088    3098
    3087    3086    3088    3090    3088    3086    3087    3091
    3087    3086    3093    3097    3284    3286    3287    3295
    3285    3286    3287    3295    3286    3287    3288    3493
    3295    3287    3288    3493    3286    3287    3288    3290
    3295    3287    3288    3290    3285    3286    3287    3288
    3492    3284    3286    3287    3289    3285    3286    3284
    3284    3286    3287    3288    3289    3285    3286    3287
    3492    3284    3286    3285    3313    3291    3292    3494
    3313    3291    3292    3282    3289    3291    3292    3282
    3101    3105    3106    3104    3094    3100    3101    3102
    3094    3100    3103    3253    3101    3100    3103    3104
    3101    3100    3103    3253    3094    3100    3101    3105
    3094    3100    3103    3104    3103    3100    3101    3105
    3093    3086    3087    3091    3085    3087    3091    3092
    3089    3085    3087    3086    3086    3087    3091    3092
    3093    3086    3087    3085    3085    3087    3091    3243
    3088    3086    3087    3085    3086    3087    3091    3243
    3093    3097    3102    3252    3093    3097    3099    3251
    3099    3097    3102    3101    3102    3097    3099    3251
    3093    3097    3102    3101    3093    3097    3099    3098
    3099    3097    3102    3252    3087    3091    3092    3244
    3243    3091    3092    3244    3087    3091    3092    3094
    3087    3085    3089    3095    3095    3089    3090    3096
    3085    3089    3090    3088    3095    3089    3090    3088
    3100    3103    3104    3106    3278    3280    3285    3289
    3278    3280    3282    3292    3278    3280    3282    3281
    3278    3280    3285    3286    3282    3280    3285    3289
    3285    3280    3282    3292    3282    3280    3285    3286
    3283    3278    3280    3282    3089    3085    3087    3091
    3084    3085    3089    3095    3084    3085    3087    3091
    3084    3085    3089    3090    3084    3085    3087    3086
    3087    3085    3089    3090    3490    3277    3281    3491
    3279    3277    3281    3491    3279    3277    3281    3282
    3281    3277    3279    3294    3490    3277    3279    3294
    3278    3279    3294    3496    3277    3279    3294    3496
    3281    3277    3279    3278    3280    3278    3279    3277
    3283    3278    3279    3277    3490    3277    3279    3278
    2341    2348    2349    2505    2504    2348    2349    2505
    2341    2348    2349    2347    2340    2341    2343    2342
    2346    2340    2341    2343    2340    2341    2343    2500
    2340    2341    2348    2349    2343    2341    2348    2504
    2340    2341    2348    2504    2348    2341    2343    2500
    2343    2341    2348    2349    2499    2342    2343    2341
    2348    2341    2343    2342    2338    2342    2343    2341
    2499    2342    2343    2500    2338    2342    2343    2500
     829     831     833     832     836     829     831     833
     829     831     833     857     856     832     833     857
     828     832     833     857    1001     831     833     832
    1001     831     833     857     856     832     833     831
     834     835     836     839     829     836     839     840
     829     836     839    1003     835     836     839     840
     835     836     839    1003     837     835     836     829
     834     835     836     829     836     839     840     842
     836     839     840     838    1003     839     840     842
     831     829     836     835     830     829     831    1001
     831     829     830     834     830     829     831     833
     836     829     831    1001     830     829     836     835
     830     829     836     839     831     829     836     839
     836     829     830     834    3452    3454    3460    3612
    3452    3454    3460    3614    3453    3454    3460    3613
    3453    3454    3460    3612    3453    3454    3460    3614
    3452    3454    3460    3613     841     838     840     842
     841     838     840     839    1003     839     840     838
     838     840     842     843     839     840     842     843
    1020     861     862     858    2352    2347    2349    2348
    2504    2348    2349    2347    3450    3452    3454    3460
    3449    3453    3454    3460    3462    3452    3454    3453
    3462    3452    3454    3460     862     858     860    1019
     857     858     862     861     860     858     862     861
     857     858     860     859     857     858     862    1021
     860     858     862    1021     857     858     860    1019
    3452    3450    3457    3458    3451    3450    3457    3461
    3457    3450    3452    3462    3452    3450    3451    3455
    3451    3450    3452    3462    3451    3450    3457    3458
    3452    3450    3457    3461    3451    3450    3452    3454
    3457    3450    3452    3454    3450    3452    3462    3480
    3454    3452    3462    3463    3454    3452    3462    3480
    3450    3452    3462    3463    3450    3452    3454    3453
     831     833     857     858     832     833     857     858
     831     833     857    1016     832     833     857    1016
     831     833     857    1015     832     833     857    1015
     833     857     858     860     833     857     858     862
    1015     857     858     860    1015     857     858     862
    1016     857     858     862    1016     857     858     860
     833     832     856    1014     828     832     833     831
     828     832     856    1014     829     830     834     835
     836     829     830     828     832     828     830     829
     831     829     830     828     828     830     834     835
     830     834     835     837     830     834     835     836
     836     835     837     838     837     835     836     839
     836     835     837    1002     837     838     841    1004
    1002     837     838     840     840     838     841    1004
     837     838     840     842     837     838     840     839
    3450    3451    3455    3456    3457    3450    3451    3449
    3449    3451    3455    3607    3452    3450    3451    3449
    3449    3451    3455    3456    3450    3451    3455    3607
    3457    3450    3451    3455    3453    3449    3451    3450
    1998    1997    2003    2153    1993    1997    2003    2153
    1998    1997    2003    2155    1993    1997    2003    2155
    1998    1997    2003    2154    1993    1997    2003    2154
    2330    2334    2335    2338    2330    2334    2335    2333
    2339    2338    2342    2343    2335    2338    2342    2499
    2335    2338    2339    2340    2335    2338    2339    2337
    2339    2338    2342    2499    2335    2338    2342    2343
    2339    2340    2341    2343    2341    2340    2346    2350
    2339    2340    2346    2350    2339    2340    2346    2347
    2346    2340    2341    2348    2339    2340    2341    2348
    2341    2340    2346    2347    3458    3457    3461    3463
    3450    3457    3458    3456    3461    3457    3458    3464
    3450    3457    3461    3466    3458    3457    3461    3466
    3450    3457    3461    3463    3450    3457    3458    3464
    3607    3455    3456    3458    3455    3456    3458    3464
    3455    3456    3458    3457    2351    2354    2355    2356
    2354    2355    2356    2514    2510    2354    2355    2356
    2512    2355    2356    2513    2354    2355    2356    2513
    2509    2354    2355    2356    2512    2355    2356    2514
    2511    2355    2356    2514    2354    2355    2356    2357
    2511    2355    2356    2513    2497    2334    2335    2333
    2336    2333    2335    2334    2334    2335    2338    2339
    2497    2334    2335    2338    2333    2335    2338    2342
    2333    2335    2338    2339    2334    2335    2338    2342
    2511    2355    2356    2357    2355    2356    2357    2359
    2355    2356    2357    2361    2512    2355    2356    2357
    2513    2356    2357    2359    2514    2356    2357    2359
    2513    2356    2357    2361    2514    2356    2357    2361
    2553    2549    2551    2550    2550    2551    2566    2768
    2549    2551    2566    2768    2555    2550    2551    2549
    2552    2550    2551    2549    2762    2549    2551    2550
     859     861     862    1021    1020     861     862    1021
     859     861     862     858    2350    2346    2347    2349
    2346    2347    2352    2353    2349    2347    2352    2507
    2346    2347    2349    2348    2346    2347    2352    2507
    2349    2347    2352    2353    2346    2347    2349    2505
    2352    2347    2349    2505    2331    2333    2336    2345
    2335    2333    2336    2345    2333    2336    2337    2498
    2333    2336    2337    2339    2345    2336    2337    2498
    2345    2336    2337    2339    2363    2364    2366    2372
    2363    2364    2366    2365    2515    2363    2364    2366
    2350    2351    2354    2510    2353    2351    2354    2355
    2350    2351    2354    2509    2353    2351    2354    2510
    2353    2351    2354    2509    2350    2351    2354    2355
    2510    2354    2355    2512    2509    2354    2355    2511
    2510    2354    2355    2511    2351    2354    2355    2512
    2351    2354    2355    2511    2509    2354    2355    2512
    2365    2358    2359    2357    2361    2357    2359    2358
    2365    2358    2359    2363    2360    2358    2359    2357
    2357    2359    2363    2515    2358    2359    2363    2515
    2357    2359    2363    2364    2358    2359    2363    2364
    2361    2357    2359    2363    2356    2357    2361    2367
    2356    2357    2359    2363    2356    2357    2361    2362
    2356    2357    2359    2358    2359    2357    2361    2362
    2331    2333    2336    2337    2344    2331    2333    2335
    2336    2333    2335    2338    2331    2333    2335    2334
    2331    2333    2335    2338    2344    2331    2333    2336
    2335    2333    2336    2337    2346    2350    2351    2353
    2350    2346    2347    2352    2347    2346    2350    2351
    2340    2346    2350    2351    2340    2346    2347    2352
    2347    2346    2350    2506    2340    2346    2347    2349
    2340    2346    2350    2506    2336    2337    2339    2338
    2336    2337    2339    2340    2550    2555    2565    2767
    2550    2555    2556    2764    2556    2555    2565    2767
    2550    2555    2556    2558    2359    2363    2364    2366
    2359    2363    2364    2516    2515    2363    2364    2516
    2333    2336    2345    2502    2337    2336    2345    2503
    2337    2336    2345    2502    2337    2336    2345    2501
    2333    2336    2345    2501    2333    2336    2345    2503
    2346    2350    2351    2354    2506    2350    2351    2354
    2350    2351    2353    2508    2506    2350    2351    2353
    2350    2351    2353    2352    2354    2351    2353    2508
    2354    2351    2353    2352    2337    2339    2340    2341
    2498    2337    2339    2340    2338    2339    2340    2346
    2342    2338    2339    2340    2498    2337    2339    2338
    2338    2339    2340    2341    2337    2339    2340    2346
    2342    2338    2339    2337    2565    2555    2556    2764
    2555    2556    2558    2557    2555    2556    2558    2559
    2565    2555    2556    2558    3456    3458    3464    3465
    3456    3458    3464    3467    3457    3458    3464    3465
    3457    3458    3464    3467    3608    3456    3458    3457
    3461    3457    3458    3456    3608    3456    3458    3464
    2557    2561    2562    2584    2562    2561    2563    2585
    2557    2561    2563    2564    2562    2561    2563    2564
    2557    2561    2562    2560    2557    2561    2563    2585
    2563    2561    2562    2584    2561    2563    2564    2766
    2561    2563    2585    2780    2564    2563    2585    2780
    2377    2373    2374    2369    2372    2373    2374    2369
    2365    2369    2374    2524    2374    2369    2371    2523
    2365    2369    2374    2373    2365    2369    2371    2370
    2371    2369    2374    2524    2365    2369    2371    2523
    2371    2369    2374    2373    2377    2373    2374    2524
    2372    2373    2374    2524    2375    2372    2373    2374
    2372    2373    2377    2526    2374    2373    2377    2526
    2374    2373    2377    2378    2372    2373    2377    2378
    2373    2377    2378    2376    2373    2372    2375    2376
    2366    2372    2375    2376    2366    2372    2373    2377
    2375    2372    2373    2377    2366    2372    2373    2374
    2373    2372    2375    2525    2366    2372    2375    2525
    2388    2370    2371    2523    2388    2370    2371    2369
    2374    2369    2371    2370    2585    2563    2564    2766
    2585    2563    2564    2554    2561    2563    2564    2554
    2552    2557    2561    2563    2558    2557    2561    2563
    2552    2557    2558    2559    2552    2557    2561    2562
    2558    2557    2561    2562    2552    2557    2558    2556
    2553    2554    2564    2563    2552    2554    2564    2766
    2553    2554    2564    2766    2552    2554    2564    2563
    2763    2553    2554    2552    2557    2552    2554    2553
    2763    2553    2554    2564    2561    2557    2558    2559
    2764    2556    2558    2557    2764    2556    2558    2559
    2561    2557    2558    2556    2556    2558    2559    2560
    2557    2558    2559    2560    2550    2552    2557    2561
    2557    2552    2554    2564    2554    2552    2557    2558
    2555    2550    2552    2554    2550    2552    2554    2564
    2550    2552    2557    2558    2554    2552    2557    2561
    2550    2552    2554    2553    2549    2553    2554    2552
    2762    2549    2553    2554    2549    2553    2554    2564
    2765    2560    2562    2561    2561    2562    2584    2778
    2561    2562    2584    2779    2560    2562    2584    2779
    2563    2561    2562    2560    2560    2562    2584    2778
    2762    2549    2553    2763    2551    2549    2553    2554
    2553    2549    2551    2566    2551    2549    2553    2763
    2762    2549    2551    2566    2366    2365    2369    2374
    2366    2365    2369    2371    2358    2365    2369    2374
    2369    2365    2366    2372    2358    2365    2366    2364
    2358    2365    2369    2371    2358    2365    2366    2372
    2375    2376    2378    2379    2373    2377    2378    2379
    2526    2377    2378    2379    2382    2376    2378    2379
    2526    2377    2378    2376    2372    2375    2376    2382
    2525    2375    2376    2378    2375    2376    2378    2377
    2525    2375    2376    2382    2382    2376    2378    2377
    2372    2375    2376    2378    2362    2360    2370    2371
    2365    2358    2360    2362    2362    2360    2370    2388
    2358    2360    2370    2388    2358    2360    2362    2361
    2358    2360    2370    2371    2365    2366    2372    2373
    2369    2365    2366    2364    2516    2364    2366    2372
    2365    2366    2372    2375    2516    2364    2366    2365
    2364    2366    2372    2373    2364    2366    2372    2375
    2551    2550    2552    2554    2555    2550    2551    2566
    2551    2550    2555    2565    2551    2550    2555    2556
    2552    2550    2551    2566    2555    2550    2552    2557
    2551    2550    2552    2557    2552    2550    2555    2565
    2552    2550    2555    2556    2360    2358    2365    2369
    2360    2358    2365    2366    2365    2358    2360    2370
    2360    2358    2359    2363    2359    2358    2365    2369
    2359    2358    2360    2362    2359    2358    2365    2366
    2359    2358    2360    2370     855     850     852    1010
     850     852     854    1012     850     852     854     853
    1010     852     854    1012     855     850     852     854
     846     849     853     854     851     849     853    1011
     846     849     853    1011     846     849     851     850
     851     849     853     854     853     849     851    1009
     846     849     851    1009     851     850     852     854
     852     850     851    1009     851     850     852    1010
     851     850     855    1013     852     850     855    1013
     840     842     843     845     840     842     843     847
     847     843     845    1006     845     843     847     848
     845     843     847    1007    2196    2198    2220    2415
    2196    2198    2220    2414    2401    2196    2198    2197
    2199    2197    2198    2196    2197    2198    2220    2415
    2197    2198    2220    2414     842     843     845    1006
     842     843     845     844    1005     844     845     843
     846     844     845     843     847     843     845     844
     849     846     848    1008     848     846     849     851
     844     846     849     851     844     846     849     853
     844     846     848    1008    1005     844     846     849
    1005     844     846     848     848     846     849     853
     844     846     848     847    2194    2193    2197    2198
    2194    2193    2197    2199    2188    2193    2197    2198
    2188    2193    2194    2195    2188    2193    2194    2192
    2188    2193    2197    2199     855     850     851    1009
     855     850     851     849     853     849     851     850
     852     850     851     849    1007     847     848     846
     849     846     848     847    1005     844     845    1006
     845     844     846     848     846     844     845    1006
     845     844     846     849    1011     853     854     852
    1010     852     854     853    2192    2194    2195    2203
    2193    2194    2195    2203    2194    2195    2196    2401
    2194    2195    2196    2198    2203    2195    2196    2401
    2203    2195    2196    2198    2198    2197    2199    2221
    2193    2197    2198    2220    2198    2197    2199    2200
    2193    2197    2199    2221    2199    2197    2198    2220
    2193    2197    2199    2200    2193    2197    2198    2196
     842     843     847     848     842     843     847    1007
    1007     847     848    1008     843     847     848     846
     843     847     848    1008    2195    2196    2198    2220
    2195    2196    2198    2197    2401    2196    2198    2220
     849     853     854     852    1011     853     854    1012
     849     853     854    1012    1972    1973    1975    1974
    1972    1973    1975    1976    2278    2277    2279    2322
    2282    2277    2279    2322    2277    2279    2281    2280
    2282    2277    2279    2281    2322    2279    2281    2280
    2277    2279    2281    2319    2276    2280    2281    2319
    2454    2280    2281    2319    2454    2280    2281    2279
    2322    2279    2281    2319    2257    2276    2280    2281
    2257    2276    2280    2454    2276    2280    2281    2279
    2278    2277    2282    2283    2279    2277    2278    2453
    2279    2277    2282    2283    2278    2277    2279    2281
    2252    2257    2276    2278    2252    2257    2276    2280
    2278    2276    2280    2281    2280    2276    2278    2453
    2278    2276    2280    2454    2279    2281    2319    2479
    2280    2281    2319    2320    2279    2281    2319    2478
    2280    2281    2319    2479    2279    2281    2319    2320
    2280    2281    2319    2478    2281    2319    2320    2480
    2281    2319    2320    2321    2478    2319    2320    2480
    2281    2319    2320    2323    2479    2319    2320    2480
    2321    2320    2323    2484    2480    2320    2321    2481
    2319    2320    2323    2484    2323    2320    2321    2326
    2321    2320    2323    2327    2319    2320    2321    2481
    2480    2320    2323    2484    2478    2319    2320    2323
    2321    2320    2323    2324    2479    2319    2320    2323
    2479    2319    2320    2321    2319    2320    2323    2327
    2323    2320    2321    2481    2478    2319    2320    2321
    2319    2320    2321    2322    2319    2320    2321    2326
    2323    2320    2321    2322    2134    1973    1975    1976
    1974    1975    1976    1982    1978    1974    1975    1973
    1973    1975    1976    1982    1973    1975    1976    1977
    2134    1973    1975    1974    1974    1975    1976    1977
    1978    1974    1975    1976    2319    2320    2323    2324
    2324    2323    2327    2490    2480    2320    2323    2324
    2320    2323    2324    2328    2324    2323    2327    2491
    2327    2323    2324    2328    2320    2323    2327    2491
    2480    2320    2323    2327    2484    2323    2327    2491
    2320    2323    2324    2485    2320    2323    2327    2490
    2484    2323    2324    2485    2484    2323    2327    2490
    2327    2323    2324    2485    2320    2323    2324    2325
    2320    2323    2327    2215    2324    2323    2327    2215
    2277    2279    2322    2483    2281    2279    2322    2321
    2277    2279    2322    2321    2281    2279    2322    2483
    2281    2279    2322    2482    2277    2279    2322    2482
    2481    2321    2322    2279    1982    1986    1987    1989
    2257    2276    2278    2453    2257    2276    2278    2277
    2282    2277    2278    2453    2279    2277    2278    2276
    2282    2277    2278    2276    2280    2276    2278    2277
    2481    2321    2322    2483    2320    2321    2326    2489
    2322    2321    2326    2325    2326    2321    2322    2483
    2481    2321    2326    2489    2320    2321    2326    2488
    2481    2321    2326    2488    2480    2320    2321    2322
    2322    2321    2326    2488    2322    2321    2326    2489
    2320    2321    2322    2482    2320    2321    2326    2325
    2481    2321    2322    2482    2326    2321    2322    2482
    2480    2320    2321    2326    2320    2321    2322    2483
    2320    2321    2322    2279    2326    2321    2322    2279
    1977    1976    1982    1986    1975    1976    1977    1984
    1977    1976    1982    1983    1975    1976    1982    1986
    1975    1976    1977    1979    1975    1976    1982    1983
    1982    1976    1977    1984    1982    1986    1987    1990
    1986    1987    1989    2144    1990    1987    1989    2144
    2142    1986    1987    1990    1986    1987    1989    1988
    2142    1986    1987    1989    1990    1987    1989    1988
    1969    1972    1981    2137    1969    1972    1981    2139
    1969    1972    1981    2138    1973    1972    1981    2138
    1973    1972    1981    2137    1973    1972    1981    2139
    1983    1982    1986    2142    1976    1982    1986    2142
    1983    1982    1986    1987    1986    1982    1983    1988
    1976    1982    1983    1988    1976    1982    1983    1985
    1976    1982    1986    1987    2277    2282    2283    2456
    2277    2282    2283    2455    2277    2282    2283    2284
    2282    2283    2284    2286    2282    2283    2284    2288
    2456    2283    2284    2286    2456    2283    2284    2288
    2455    2283    2284    2288    2455    2283    2284    2286
    1971    1969    1972    1981    1967    1969    1972    1981
    1969    1972    1973    1975    1981    1972    1973    2134
    1969    1972    1973    2134    1981    1972    1973    1975
    2143    1988    1989    1987    1984    1977    1979    1978
    2135    1978    1979    1977    1988    1983    1985    2141
    1986    1982    1983    1985    1982    1983    1985    1984
    1985    1983    1988    1989    1982    1983    1988    2143
    1982    1983    1985    2141    1985    1983    1988    2143
    1982    1983    1988    1989    1976    1977    1979    2136
    1976    1977    1984    1985    1979    1977    1984    1985
    1976    1977    1984    2140    1982    1976    1977    1979
    1976    1977    1979    1978    1979    1977    1984    2140
    1984    1977    1979    2136    1971    1974    1975    1973
    1975    1974    1978    2135    1971    1974    1978    2135
    1975    1974    1978    1979    1971    1974    1975    1976
    1971    1974    1978    1979    1983    1988    1989    2144
    2143    1988    1989    2144    1983    1988    1989    1987
    2939    2941    2945    3140    2940    2941    2945    3141
    2939    2941    2945    2944    2940    2941    2945    2944
    2940    2941    2945    3140    2939    2941    2945    3141
    2946    2944    2945    3141    2946    2944    2945    3140
    2943    2944    2945    3141    2943    2944    2945    3140
    2943    2944    2945    2941    2946    2944    2945    2941
    2980    2985    3004    3006    2980    2985    3004    3008
    3006    3004    3008    3009    3006    3004    3008    3182
    3008    3004    3006    3181    2493    2328    2329    2494
    2492    2328    2329    2495    2324    2328    2329    2330
    2324    2328    2329    2495    2492    2328    2329    2494
    2324    2328    2329    2494    2485    2324    2328    2329
    2493    2328    2329    2495    2961    2963    2965    2973
    2966    2963    2965    2973    2960    2964    2965    2973
    2960    2964    2965    2963    2959    2964    2965    2973
    2966    2963    2965    2964    2976    2986    2987    3169
    2976    2986    2987    2988    2976    2986    2987    3170
    2986    2987    2988    2990    2986    2987    2988    2992
    3169    2987    2988    2992    3169    2987    2988    2990
    3170    2987    2988    2992    3170    2987    2988    2990
    2955    2953    2958    3150    2955    2953    2954    3149
    2954    2953    2958    3150    2954    2953    2955    2957
    2954    2953    2955    2959    2938    2939    2941    2945
    2935    2940    2941    2945    2947    2939    2941    2945
    2947    2939    2941    2940    2975    2977    2981    3167
    2975    2977    2981    3166    2975    2977    2981    3165
    2976    2977    2981    3166    2976    2977    2981    3165
    2976    2977    2981    3167    2324    2325    2326    2489
    2487    2325    2326    2488    2324    2325    2326    2488
    2486    2325    2326    2488    2487    2325    2326    2489
    2486    2325    2326    2489    2485    2324    2325    2326
    2985    3004    3006    3005    2985    3004    3006    3181
    3010    3005    3006    3181    3007    3005    3006    3004
    3008    3004    3006    3005    3010    3005    3006    3004
    2939    2947    2952    2954    2939    2947    2952    2956
    2956    2952    2954    3149    2954    2952    2956    2957
    2328    2324    2325    2486    2484    2323    2324    2328
    2323    2324    2328    2329    2485    2324    2325    2486
    2323    2324    2325    2487    2323    2324    2328    2492
    2485    2324    2328    2493    2323    2324    2325    2486
    2485    2324    2325    2487    2323    2324    2328    2493
    2325    2324    2328    2329    2485    2324    2328    2492
    2484    2323    2324    2325    2325    2324    2328    2493
    2327    2323    2324    2325    2323    2324    2325    2326
    2328    2324    2325    2487    2325    2324    2328    2492
    2328    2324    2325    2326    2959    2955    2957    2956
    2956    2957    2960    2964    2955    2957    2960    2964
    3161    2973    2974    2975    2973    2974    2975    2979
    3160    2973    2974    2975    2973    2974    2975    2977
    3163    2974    2975    2977    3162    2974    2975    2977
    3163    2974    2975    2979    3162    2974    2975    2979
    2957    2956    2982    2983    2957    2956    2982    2984
    2952    2956    2982    2984    2952    2956    2982    2983
    2956    2982    2984    3168    2983    2982    2984    3168
    2977    2976    2978    2980    2978    2976    2986    2987
    2977    2976    2986    2987    2986    2976    2978    2980
    2975    2979    2980    2985    2975    2979    2980    2978
    3164    2979    2980    2985    3164    2979    2980    2978
    2958    2953    2955    2959    2953    2955    2959    2962
    2958    2953    2955    2957    2957    2955    2959    2964
    2953    2955    2957    2956    2953    2955    2957    2960
    2957    2955    2959    2962    2953    2955    2959    2964
    2959    2955    2957    2960    2963    2965    2973    3161
    2963    2965    2973    2974    2964    2965    2973    3161
    2964    2965    2973    2974    2963    2965    2973    3160
    2964    2965    2973    3160    2965    2973    2974    2975
    3161    2973    2974    3162    3160    2973    2974    3163
    3161    2973    2974    3163    2965    2973    2974    3163
    3160    2973    2974    3162    2965    2973    2974    3162
    2985    3004    3008    3009    2985    3004    3008    3182
    3004    3008    3009    3007    2976    2978    2980    2985
    2976    2978    2980    2979    2978    2980    2985    3004
    2979    2980    2985    3004    2954    2952    2956    2982
    2947    2952    2956    2957    2947    2952    2956    2982
    2952    2956    2957    2960    2952    2956    2957    2955
    2982    2956    2957    2960    2982    2956    2957    2955
    2957    2960    2964    2965    2957    2960    2964    2959
    2959    2964    2965    2963    2974    2975    2977    2981
    2974    2975    2977    2976    2974    2975    2979    2980
    2977    2975    2979    2980    2974    2975    2979    3164
    2977    2975    2979    3164    2979    2975    2977    2981
    2978    2976    2977    2981    2986    2976    2977    2981
    2986    2976    2977    2975    2979    2975    2977    2976
    2978    2976    2977    2975    2955    2959    2964    2965
    2955    2959    2964    2960    2962    2959    2964    2965
    2955    2959    2962    2961    2955    2959    2962    3152
    2964    2959    2962    3152    2962    2959    2964    2960
    2324    2325    2326    2321    2486    2325    2326    2321
    2487    2325    2326    2321    2481    2321    2326    2325
    1631    1635    1636    1788    1787    1635    1636    1788
    1631    1635    1636    1638    1630    1631    1635    1787
    1637    1630    1631    1629    1629    1631    1635    1636
    1637    1630    1631    1635    1633    1629    1631    1630
    1630    1631    1635    1636    1629    1631    1635    1787
    1632    1630    1631    1629    1631    1629    1633    1639
    1639    1633    1634    1640    1629    1633    1634    1632
    1639    1633    1634    1632    1628    1629    1631    1630
    1633    1629    1631    1635    1628    1629    1633    1634
    1631    1629    1633    1634    1628    1629    1633    1639
    1628    1629    1631    1635    1783    1627    1628    1629
    1784    1627    1628    1629    1627    1628    1629    1631
    1627    1628    1629    1633    1786    1628    1629    1633
    1786    1628    1629    1631    1785    1628    1629    1631
    1785    1628    1629    1633    1623    1626    1627    1628
    1626    1627    1628    1785    1784    1627    1628    1786
    1784    1627    1628    1785    1782    1626    1627    1628
    1783    1627    1628    1785    1626    1627    1628    1629
    1781    1626    1627    1628    1783    1627    1628    1786
    1626    1627    1628    1786    1622    1623    1626    1627
    1625    1623    1626    1627    1622    1623    1626    1782
    1622    1623    1626    1781    1625    1623    1626    1781
    1625    1623    1626    1782    1781    1626    1627    1784
    1782    1626    1627    1783    1782    1626    1627    1784
    1623    1626    1627    1784    1781    1626    1627    1783
    1623    1626    1627    1783    1634    1633    1639    1789
    1634    1633    1639    1791    1634    1633    1639    1790
    1629    1633    1639    1789    1629    1633    1639    1791
    1629    1633    1639    1790    1618    1622    1623    1625
    1630    1632    1634    1640    1629    1633    1634    1640
    1642    1632    1634    1640    1642    1632    1634    1633
    1618    1622    1623    1626    1778    1622    1623    1626
    1778    1622    1623    1625    1622    1623    1625    1780
    1626    1623    1625    1780    1622    1623    1625    1624
    1626    1623    1625    1624    1787    1635    1636    1638
    1635    1636    1638    1644    1635    1636    1638    1637
    2932    2934    2950    3145    2938    2933    2934    2932
    2935    2933    2934    2932    2933    2934    2950    3145
    2936    2932    2934    2933    2924    2923    2931    3133
    2922    2923    2931    3134    2924    2923    2931    2932
    2922    2923    2931    3133    2922    2923    2931    2932
    2924    2923    2931    3134    2923    2931    2932    2934
    2923    2931    2932    2936    3134    2931    2932    2936
    3134    2931    2932    2934    3133    2931    2932    2936
    3133    2931    2932    2934    1632    1634    1640    1792
    1632    1634    1640    1794    1633    1634    1640    1792
    1633    1634    1640    1794    1632    1634    1640    1793
    1633    1634    1640    1793    1636    1638    1644    1645
    1636    1638    1644    1647    1641    1637    1638    1636
    1637    1638    1644    1645    1637    1638    1644    1647
    1788    1636    1638    1644    1788    1636    1638    1637
    1631    1630    1637    1641    1631    1630    1632    1642
    1631    1630    1637    1638    1632    1630    1637    1641
    1632    1630    1631    1635    1632    1630    1637    1638
    1631    1630    1632    1634    1637    1630    1632    1642
    1630    1632    1642    1660    1630    1632    1642    1643
    1634    1632    1642    1660    1630    1632    1634    1633
    1634    1632    1642    1643    1637    1630    1632    1634
    2931    2932    2936    3135    2934    2932    2936    3135
    2936    2932    2934    2950    2934    2932    2936    2937
    2931    2932    2934    2950    2931    2932    2936    2937
    2931    2932    2934    2933    2934    2933    2938    2939
    2934    2933    2935    2940    2938    2933    2934    2950
    2934    2933    2935    2937    2935    2933    2934    2950
    2938    2933    2935    2940    2935    2933    2938    2939
    2929    2919    2920    3128    2919    2920    2922    2921
    2919    2920    2922    2923    2929    2919    2920    2922
    2914    2919    2920    2922    2920    2919    2929    3131
    2914    2919    2929    3131    2914    2919    2920    3128
    2935    2933    2938    2951    2934    2933    2938    2951
    2933    2938    2939    2941    2933    2938    2939    2947
    2951    2938    2939    2941    2951    2938    2939    2947
    1815    1665    1666    1664    1814    1664    1666    1665
    1616    1603    1604    1768    1616    1603    1604    1602
    1605    1603    1604    1602    1606    1602    1604    1603
    2398    2185    2189    2190    2185    2189    2190    2200
    2185    2189    2190    2188    1662    1664    1666    1665
    1814    1664    1666    1816    1662    1664    1666    1816
    1977    1984    1985    1983    1977    1984    1985    2141
    2140    1984    1985    2141    2140    1984    1985    1983
    1988    1983    1985    1984     526     527     529     528
     529     527     532     533     526     527     532     533
     526     527     529     685     532     527     529     685
     529     527     532     687     526     527     532     687
     530     526     527     529    1663    1662    1664    1666
    1663    1662    1669    1820    1664    1662    1669    1820
    1663    1662    1664    1814    1669    1662    1664    1814
    1669    1662    1663    1661    1669    1662    1664    1666
     521     528     529     685     684     528     529     685
     521     528     529     527    1605    1608    1617    1773
    1605    1608    1617    1775    1609    1608    1617    1773
    1609    1608    1617    1775    1605    1608    1617    1774
    1609    1608    1617    1774    2189    2185    2187    2202
    2187    2185    2189    2399    2398    2185    2189    2399
    2187    2185    2189    2190    2398    2185    2187    2202
    2398    2185    2187    2186    2185    2187    2202    2404
    2186    2187    2202    2404    2191    2186    2187    2185
    2188    2186    2187    2185    2189    2185    2187    2186
     684     528     529     527     532     527     529     528
    1608    1609    1611    1610    1608    1609    1611    1612
    1616    1661    1665    1666    1616    1661    1665    1815
    1661    1665    1666    1816    1661    1665    1666    1664
    1815    1665    1666    1816    1609    1611    1612    1613
    1614    1610    1611    1612    1770    1609    1611    1612
    1610    1611    1612    1618    1610    1611    1612    1613
    1770    1609    1611    1610    1614    1610    1611    1609
    1609    1611    1612    1618    1769    1606    1607    1610
    1606    1607    1610    1614    1606    1607    1610    1611
    1769    1606    1607    1605    1605    1607    1610    1614
    1608    1605    1607    1606    1605    1607    1610    1611
    1604    1603    1605    1607    1605    1603    1604    1768
    1604    1603    1616    1661    1604    1603    1605    1608
    1605    1603    1616    1661    1616    1661    1663    1662
    1665    1661    1663    1668    1616    1661    1663    1668
    1664    1662    1663    1668    1669    1662    1663    1668
    1664    1662    1663    1661    1665    1661    1663    1662
    1661    1663    1668    1819    1662    1663    1668    1667
    1662    1663    1668    1819    1661    1663    1668    1667
    1662    1663    1668    1818    1661    1663    1668    1818
    1817    1667    1668    1818    1817    1667    1668    1819
    1669    1667    1668    1819    1669    1667    1668    1818
    1817    1667    1668    1663    1669    1667    1668    1663
    1603    1616    1661    1663    1603    1616    1661    1665
    1663    1661    1665    1815    1663    1661    1665    1666
    1608    1605    1607    1610    1603    1605    1607    1606
    1616    1603    1605    1608    1603    1605    1607    1610
    1607    1605    1608    1609    1603    1605    1608    1609
    1616    1603    1605    1607    1607    1610    1611    1609
    1611    1610    1614    1615    1607    1610    1614    1771
    1607    1610    1611    1612    1611    1610    1614    1771
    1607    1610    1614    1615    1607    1605    1608    1617
    1603    1605    1608    1617    1617    1608    1609    1770
    1605    1608    1609    1611    1605    1608    1609    1770
    1617    1608    1609    1611    1602    1606    1607    1605
    1602    1606    1607    1610    2186    2188    2190    2200
    2186    2188    2190    2189    2186    2188    2193    2194
    2190    2188    2193    2197    2190    2188    2193    2194
    2191    2186    2188    2190    2193    2188    2190    2200
    2186    2188    2193    2197    2187    2186    2191    2192
    2187    2186    2188    2193    2188    2186    2191    2201
    2188    2186    2191    2192    2191    2186    2187    2202
    2187    2186    2188    2190    2188    2186    2187    2202
    2187    2186    2191    2201    2191    2186    2188    2193
    1968    1967    1969    1972    1969    1967    1968    2132
    1968    1967    1969    1971    1969    1967    1980    2025
    1968    1967    1980    2025    1960    1964    1965    2130
    2129    1964    1965    2130    1960    1964    1965    2131
    2128    1964    1965    2131    1960    1964    1965    1966
    2129    1964    1965    2131    2121    1960    1964    1965
    2128    1964    1965    2130    1966    1970    1971    1974
    1966    1970    1971    1969    1968    1966    1970    1971
    1970    1966    1968    2132    1968    1966    1970    2133
    1965    1966    1970    2133    1965    1966    1968    1967
    1965    1966    1968    2132    1965    1966    1970    1971
    1980    1967    1968    2132    1969    1967    1968    1966
    1970    1966    1968    1967    1980    1967    1968    1966
    1964    1965    1966    1968    1964    1965    1966    1970
    2129    1964    1965    1966    2128    1964    1965    1966
    2131    1965    1966    1968    2130    1965    1966    1970
    2130    1965    1966    1968    2131    1965    1966    1970
    2133    1970    1971    1974    1972    1969    1971    1970
    1969    1971    1974    1978    1970    1971    1974    1978
    1969    1971    1974    1975    1970    1971    1974    1975
    2133    1970    1971    1969    1967    1980    2025    2027
    1967    1980    2025    2029    2027    2025    2029    2030
    2027    2025    2029    2179    1959    1960    1961    2122
    2121    1960    1961    2123    1959    1960    1964    2129
    2121    1960    1964    2128    1959    1960    1961    1962
    1963    1959    1960    1961    1959    1960    1964    1965
    1964    1960    1961    2123    1961    1960    1964    1965
    1961    1960    1964    2128    1964    1960    1961    2122
    2120    1959    1960    1964    2120    1959    1960    1961
    1959    1960    1961    2123    2121    1960    1961    2122
    1959    1960    1964    2128    1961    1960    1964    2129
    2121    1960    1964    2129    1964    1960    1961    1962
    1980    1967    1969    1972    1972    1969    1971    1974
    1971    1969    1972    1973    1967    1969    1971    1970
    1967    1969    1971    1974    1967    1969    1972    1973
    1980    1967    1969    1971    2287    2289    2313    2314
    2287    2289    2313    2471    2288    2289    2313    2472
    2288    2289    2313    2471    2287    2289    2313    2472
    2288    2289    2313    2314    2289    2313    2314    2316
    2289    2313    2314    2318    2472    2313    2314    2316
    2472    2313    2314    2318    2471    2313    2314    2318
    2471    2313    2314    2316    2284    2288    2312    2470
    2289    2288    2312    2470    2284    2288    2289    2287
    1955    1956    1959    1960    1963    1959    1960    2121
    2116    1956    1959    1960    2120    1959    1963    2127
    1956    1959    1963    2126    1956    1959    1960    1964
    1960    1959    1963    2127    1963    1959    1960    1964
    2120    1959    1960    2121    2120    1959    1963    2126
    1956    1959    1960    1961    1956    1959    1963    2127
    2116    1956    1959    1963    1960    1959    1963    2126
    1956    1959    1960    2121    1956    1959    1963    1851
    1960    1959    1963    1851    3407    3409    3410    3569
    3568    3409    3410    3569    3407    3409    3410    3406
    2283    2284    2286    2290    2286    2284    2288    2289
    2283    2284    2288    2289    2283    2284    2286    2285
    2283    2284    2288    2312    2288    2284    2286    2290
    2286    2284    2288    2312    2123    1961    1962    2125
    2122    1961    1962    2124    2121    1960    1961    1962
    1960    1961    1962    2125    2123    1961    1962    2124
    2122    1961    1962    2125    1960    1961    1962    2124
    1748    1589    1590    1749    1587    1589    1590    1749
    1587    1589    1590    1586    2285    2287    2289    2313
    2312    2288    2289    2313    2284    2288    2289    2313
    2457    2287    2289    2288    2457    2287    2289    2313
    2312    2288    2289    2287      54      55      59     244
      54      55      59      58      57      55      59      58
      57      56      58     243     241      56      58     243
      57      56      58     242     241      56      58     242
      57      56      58      59     242      58      59     244
     243      58      59     244     241      56      58      59
      56      58      59     244     242      58      59      55
     243      58      59      55      56      58      59      55
      51      54      55      57      51      54      55      59
      57      55      59     244      58      56      57      60
      58      56      57      55    2029    2025    2027    2032
    1980    2025    2027    2026    1980    2025    2027    2032
    2028    2026    2027    2032    2029    2025    2027    2026
    2033    2026    2027    2032    2028    2026    2027    2025
    2135    1978    1979    2136    1974    1978    1979    1977
    1974    1978    1979    2136    2284    2286    2290    2291
    2292    2285    2286    2284    2288    2284    2286    2285
    2287    2285    2286    2284    2285    2286    2290    2291
    1980    2025    2029    2030    1980    2025    2029    2179
    2025    2029    2030    2028    2179    2029    2030    2180
    2025    2029    2030    2180    2963    2961    2962    2959
    2964    2959    2962    2961    3151    2961    2962    2959
    2179    2029    2030    2028    2178    2028    2030    2029
    2034    1821    1825    1826    1821    1825    1826    1836
    1821    1825    1826    1824    2966    2967    2969    2968
    2966    2967    2969    2972    2971    2967    2969    2972
    3153    2968    2969    2967    3153    2968    2969    2972
    2971    2967    2969    2968    1836    1835    1857    2052
    1833    1835    1857    2052    1833    1835    1836    2038
    2967    2969    2972    3159    2967    2969    2972    3158
    2968    2969    2972    3158    2967    2969    2972    3157
    2968    2969    2972    3157    2968    2969    2972    3159
    2966    2967    2971    2970    2969    2967    2971    2970
    2966    2967    2971    3156    2969    2968    2970    3155
    3153    2968    2970    3155    2969    2968    2970    3154
    3153    2968    2970    3154    2969    2968    2970    2971
    3155    2970    2971    3156    3154    2970    2971    3156
    3153    2968    2970    2971    2968    2970    2971    3156
    3155    2970    2971    2967    2968    2970    2971    2967
    3154    2970    2971    2967    2963    2966    2967    2969
    2963    2966    2967    2971    2969    2967    2971    3156
    1857    1835    1836    2038    1857    1835    1836    1826
    1833    1835    1836    1826    2963    2961    2962    3152
    2962    2961    2963    2966    2962    2961    2963    2965
    3151    2961    2962    3152    3151    2961    2963    2966
    2965    2963    2966    2967    2961    2963    2965    2964
    2961    2963    2966    2967    3151    2961    2963    2965
    2970    2968    2969    2972    2970    2968    2969    2967
    1825    1826    1836    2038    1824    1826    1836    2038
    1829    1824    1826    1825    2035    1825    1826    1824
    1824    1826    1836    1835    2035    1825    1826    1836
    1825    1826    1836    1835    1475    1476    1480    1679
    1475    1476    1480    1481    1475    1476    1478    1494
    1480    1476    1478    1494    1475    1476    1478    1477
    1478    1476    1480    1679    1478    1476    1480    1481
    1476    1478    1494    1689    1482    1477    1478    1476
    1479    1477    1478    1476    1477    1478    1494    1689
    1480    1476    1478    1477    1464    1466    1467    1475
    1465    1466    1467    1475    1475    1467    1468    1673
    1466    1467    1468    1673    1466    1467    1468    1470
    1475    1467    1468    1470    1479    1477    1478    1494
    1478    1477    1482    1483    1478    1477    1479    1484
    1479    1477    1482    1483    1478    1477    1479    1481
    1482    1477    1479    1484    1482    1477    1478    1494
    1672    1464    1466    1465    1469    1465    1466    1467
    1672    1464    1466    1467    1464    1466    1467    1468
    1465    1466    1467    1468    1469    1465    1466    1464
    1467    1468    1470    1469    1467    1468    1470    1492
    1673    1468    1470    1492    1460    1465    1469    1470
    1460    1465    1466    1464    1460    1465    1469    1471
    1466    1465    1469    1471    1460    1465    1466    1467
    1466    1465    1469    1470    1468    1467    1475    1476
    1466    1467    1475    1678    1466    1467    1475    1677
    1466    1467    1475    1476    1468    1467    1475    1678
    1468    1467    1475    1677    1467    1475    1476    1478
    1467    1475    1476    1480    1678    1475    1476    1478
    1677    1475    1476    1478    1678    1475    1476    1480
    1677    1475    1476    1480    1470    1469    1471    1472
    1471    1469    1470    1492    1465    1469    1471    1472
    1465    1469    1470    1492    1465    1469    1470    1468
    1470    1469    1471    1493    1465    1469    1471    1493
    1463    1458    1460    1462    1462    1460    1465    1469
    1462    1460    1465    1466    1465    1460    1462    1472
    1458    1460    1465    1469    1458    1460    1462    1472
    1458    1460    1462    1461    1458    1460    1465    1466
    1460    1458    1463    1473    1459    1458    1460    1465
    1463    1458    1460    1465    1460    1458    1459    1474
    1460    1458    1463    1464    1459    1458    1463    1473
    1459    1458    1463    1464    1459    1458    1460    1462
    1463    1458    1459    1474    1679    1480    1481    1680
    1476    1480    1481    1680    1476    1480    1481    1479
    1473    1463    1464    1672    1463    1464    1466    1467
    1473    1463    1464    1466    1463    1464    1466    1465
    1464    1463    1473    1675    1458    1463    1473    1675
    1458    1463    1464    1672    1458    1463    1464    1466
    1478    1477    1482    1495    1479    1477    1482    1495
    1477    1482    1483    1491    1477    1482    1483    1485
    1495    1482    1483    1485    1495    1482    1483    1491
    1484    1479    1481    1680    1482    1477    1479    1481
    1477    1479    1481    1680    1481    1479    1484    1485
    1477    1479    1481    1480    1477    1479    1484    1485
    1679    1480    1481    1479    1484    1479    1481    1480
    1481    1479    1484    1486    1477    1479    1484    1486
    1479    1484    1485    1483    1486    1484    1485    1489
    1486    1484    1485    1483    1482    1483    1485    1489
    1479    1484    1485    1489    1491    1483    1485    1489
    1491    1483    1485    1484    1463    1458    1459    1457
    1460    1458    1459    1457    1461    1457    1459    1458
    1458    1459    1474    1676    1457    1459    1474    1676
    1670    1457    1459    1458    1671    1461    1462    1472
    1461    1462    1472    1674    1461    1462    1472    1471
    1460    1462    1472    1674    1465    1460    1462    1461
    1671    1461    1462    1460    1460    1462    1472    1471
    1673    1468    1470    1469    1471    1469    1470    1468
    1468    1470    1492    1686    1469    1470    1492    1687
    1469    1470    1492    1686    1468    1470    1492    1687
    1469    1471    1493    1688    1469    1471    1472    1674
    1472    1471    1493    1688    1477    1482    1495    1691
    1477    1482    1495    1690    1477    1482    1495    1692
    1483    1482    1495    1690    1483    1482    1495    1692
    1483    1482    1495    1691    1493    1471    1472    1674
    1493    1471    1472    1462    1469    1471    1472    1462
    1496    1500    1526    1528    1501    1500    1526    1527
    1496    1500    1526    1527    1501    1500    1526    1528
    1527    1526    1528    1712    1500    1526    1528    1712
    1482    1483    1485    1484    1482    1483    1491    1496
    1485    1483    1491    1496    1765    1600    1601    1602
    1764    1600    1601    1602    1600    1601    1602    1604
    1600    1601    1602    1606    1767    1601    1602    1606
    1766    1601    1602    1604    1767    1601    1602    1604
    1766    1601    1602    1606    1483    1485    1489    1488
    1484    1485    1489    1685    1483    1485    1489    1685
    1484    1485    1489    1684    1484    1485    1489    1488
    1483    1485    1489    1684    1490    1488    1489    1684
    1487    1488    1489    1684    1490    1488    1489    1685
    1487    1488    1489    1685    1490    1488    1489    1485
    1487    1488    1489    1485    1913    1915    1958    1957
    1917    1915    1958    1957    1917    1915    1958    2119
    1913    1915    1958    2118    1917    1915    1958    2118
    1913    1915    1958    2119    2117    1957    1958    1915
    1962    1957    1958    2118    1956    1957    1962    2125
    1958    1957    1962    1961    1962    1957    1958    2119
    1958    1957    1962    2125    2117    1957    1958    2119
    2116    1956    1957    1962    1956    1957    1962    1961
    2117    1957    1962    2125    2116    1956    1957    1958
    1958    1957    1962    2124    2117    1957    1958    2118
    1956    1957    1958    2119    2117    1957    1962    2124
    1956    1957    1958    2118    1956    1957    1962    2124
    1956    1957    1958    1915    1962    1957    1958    1915
    1597    1596    1600    1764    1600    1596    1597    1759
    1757    1596    1600    1765    1756    1595    1596    1597
    1600    1596    1597    1758    1757    1596    1597    1759
    1595    1596    1597    1598    1595    1596    1600    1601
    1757    1596    1597    1758    1595    1596    1600    1765
    1597    1596    1600    1601    1756    1595    1596    1600
    1595    1596    1597    1759    1595    1596    1600    1764
    1597    1596    1600    1765    1599    1595    1596    1597
    1757    1596    1600    1764    1595    1596    1597    1758
    1600    1596    1597    1598    1601    1602    1606    1769
    1601    1602    1604    1768    1601    1602    1606    1607
    1604    1602    1606    1769    1606    1602    1604    1768
    1604    1602    1606    1607    1601    1602    1604    1603
    1484    1486    1487    1488    1484    1486    1487    1599
    1682    1486    1487    1683    1681    1486    1487    1683
    1682    1486    1487    1599    1683    1487    1599    1762
    1486    1487    1599    1762    1681    1486    1487    1599
    1682    1486    1487    1488    1488    1487    1599    1763
    1486    1487    1488    1490    1681    1486    1487    1488
    1488    1487    1599    1762    1486    1487    1488    1489
    1683    1487    1599    1763    1486    1487    1599    1763
    1683    1487    1488    1489    1599    1487    1488    1489
    1683    1487    1488    1490    1599    1487    1488    1490
    2123    1961    1962    1957    2117    1957    1962    1961
    1960    1961    1962    1957    2122    1961    1962    1957
    1759    1597    1598    1760    1758    1597    1598    1761
    1757    1596    1597    1598    1758    1597    1598    1760
    1596    1597    1598    1760    1759    1597    1598    1761
    1596    1597    1598    1761    1596    1600    1601    1767
    1596    1600    1601    1766    1757    1596    1600    1601
    1596    1600    1601    1602    1764    1600    1601    1766
    1765    1600    1601    1767    1765    1600    1601    1766
    1764    1600    1601    1767    1552    1553    1591    1751
    1551    1553    1591    1592    1551    1553    1591    1750
    1552    1553    1591    1592    1552    1553    1591    1750
    1551    1553    1591    1751    1553    1591    1592    1752
    1488    1487    1599    1595    1486    1487    1599    1595
    1683    1487    1599    1595    1756    1595    1599    1487
    1596    1597    1598    1593    1753    1593    1598    1597
    1759    1597    1598    1593    1758    1597    1598    1593
    1594    1593    1598    1761    1598    1593    1594    1755
    1592    1593    1598    1597    1752    1592    1593    1594
    1753    1593    1598    1761    1594    1593    1598    1760
    1598    1593    1594    1754    1592    1593    1594    1755
    1592    1593    1598    1761    1592    1593    1594    1754
    1592    1593    1598    1760    1752    1592    1593    1598
    1753    1593    1594    1755    1594    1593    1598    1597
    1753    1593    1594    1754    1753    1593    1598    1760
    1598    1593    1594    1551    1592    1593    1594    1551
    1751    1591    1592    1752    1553    1591    1592    1593
    1750    1591    1592    1752    1553    1591    1592    1595
    1593    1592    1595    1756    1591    1592    1593    1598
    1591    1592    1595    1756    1593    1592    1595    1599
    1591    1592    1593    1594    1593    1592    1595    1596
    1752    1592    1595    1756    1750    1591    1592    1593
    1595    1592    1593    1753    1752    1592    1593    1753
    1751    1591    1592    1595    1591    1592    1595    1599
    1751    1591    1592    1593    1591    1592    1593    1753
    1750    1591    1592    1595    1595    1592    1593    1598
    1595    1592    1593    1594    2114    1955    1956    2116
    2115    1955    1956    2116    1917    1955    1956    1957
    1917    1955    1956    1959    2115    1955    1956    1959
    1955    1956    1959    2120    1955    1956    1957    2117
    2114    1955    1956    1959    2116    1956    1959    2120
    1959    1956    1957    1962    1957    1956    1959    1963
    1955    1956    1957    1962    2115    1955    1956    1957
    1959    1956    1957    2117    1957    1956    1959    1960
    2114    1955    1956    1957    1957    1956    1959    2120
    1955    1956    1959    1963    1955    1956    1957    1958
    2116    1956    1957    2117    1959    1956    1957    1958
    1591    1592    1595    1596    1599    1595    1596    1600
    1592    1595    1596    1597    1592    1595    1599    1763
    1756    1595    1599    1763    1592    1595    1596    1757
    1756    1595    1596    1757    1756    1595    1599    1762
    1596    1595    1599    1762    1752    1592    1595    1596
    1752    1592    1595    1599    1596    1595    1599    1763
    1599    1595    1596    1757    1592    1595    1599    1762
    1592    1595    1596    1600    1592    1595    1599    1487
    1596    1595    1599    1487    1485    1484    1486    1682
    1485    1484    1486    1681    1479    1484    1486    1682
    1485    1484    1486    1487    1479    1484    1486    1681
    1479    1484    1486    1487    1484    1486    1487    1683
    1549    1551    1553    1591    1548    1552    1553    1591
    1594    1551    1553    1591    1726    1552    1553    1551
    1726    1552    1553    1591    1845    1843    1848    1849
    1841    1843    1845    2044    1848    1843    1845    2044
    1841    1843    1845    1844    1841    1843    1848    1849
    1846    1841    1843    1845    1848    1849    1853    2048
    1847    1849    1853    2049    1848    1849    1853    1852
    1847    1849    1853    2048    1848    1849    1853    2049
    1847    1849    1853    1852    1851    1852    1853    2048
    1851    1852    1853    2049    1854    1852    1853    2049
    1854    1852    1853    2048    1854    1852    1853    1849
    1851    1852    1853    1849    1847    1855    1860    1862
    1847    1855    1860    1864    1862    1860    1864    1865
    1864    1860    1862    2057    1846    1847    1849    1853
    1843    1848    1849    1853    1855    1847    1849    1853
    1855    1847    1849    1848    1846    1847    1855    1860
    1846    1847    1849    1848    1849    1847    1855    1860
    1845    1843    1848    1850    1841    1843    1848    1850
    1850    1848    1849    1853    1843    1848    1849    1847
    1850    1848    1849    1847    1855    1860    1862    2057
    1855    1860    1862    1861    1866    1861    1862    2057
    1863    1861    1862    1860    1864    1860    1862    1861
    1866    1861    1862    1860    1842    1841    1846    1859
    1843    1841    1846    1859    1841    1846    1847    1855
    1841    1846    1847    1849    1859    1846    1847    1849
    1859    1846    1847    1855    2043    1844    1845    1843
    1848    1843    1845    1844    1843    1848    1850    2045
    1843    1848    1850    1851    1849    1848    1850    2046
    1849    1848    1850    2045    1849    1848    1850    1851
    1843    1848    1850    2046    1848    1850    1851    2047
    1842    1841    1843    1845    1846    1841    1843    1848
    1842    1841    1846    1847    1846    1841    1842    1858
    1843    1841    1842    1858    1842    1841    1843    1848
    1843    1841    1846    1847    3364    3363    3366    3542
    3360    3363    3366    3541    3360    3363    3366    3543
    3364    3363    3366    3541    3364    3363    3366    3543
    3360    3363    3366    3542    2046    1850    1851    2047
    1848    1850    1851    1852    2045    1850    1851    2047
    1848    1850    1851    1963    1852    1851    1963    2127
    2045    1850    1851    1852    2046    1850    1851    1963
    2047    1851    1963    2126    1850    1851    1852    1854
    2045    1850    1851    1963    1850    1851    1852    1853
    1850    1851    1963    2126    1850    1851    1963    2127
    1852    1851    1963    2126    2046    1850    1851    1852
    2047    1851    1963    2127    2047    1851    1852    1853
    2047    1851    1852    1854    1963    1851    1852    1853
    1963    1851    1852    1854    1855    1860    1864    1890
    1855    1860    1864    1865    1862    1860    1864    1890
    1860    1864    1865    1868    1860    1864    1865    1863
    1890    1864    1865    1863    1890    1864    1865    1868
    1840    1844    1845    2044    1840    1844    1845    1843
    2043    1844    1845    2044      50      49      51      54
     239      49      50     240      51      49      50     240
      50      49      51      53     239      49      51      54
    1862    1861    1866    2058    1862    1861    1863    1865
    1862    1861    1863    1867    1863    1861    1866    2058
    1863    1861    1862    2057    1850    1851    1963    1959
    1852    1851    1963    1959    2047    1851    1963    1959
    2120    1959    1963    1851    1847    1846    1859    2055
    1841    1846    1859    2054    1841    1846    1859    2056
    1847    1846    1859    2054    1847    1846    1859    2056
    1841    1846    1859    2055    1840    1842    1858    2053
    1846    1841    1842    1840    1841    1842    1858    2053
    1844    1840    1842    1841    1843    1841    1842    1840
    1860    1864    1890    1892    1860    1864    1890    1891
    1865    1864    1890    1891    1865    1864    1890    1892
    1864    1890    1892    2076    1891    1890    1892    2076
      53      51      54      55     239      49      51      53
      49      51      53      52      49      51      54      55
    3566    3407    3409    3568    3409    3407    3408    3567
    3408    3407    3409    3568    3565    3407    3408    3567
    3566    3407    3408    3567    3565    3407    3409    3568
    3408    3407    3409    3410    3409    3407    3408    3406
    3566    3407    3408    3406    3565    3407    3408    3406
    3565    3407    3409    3410    3566    3407    3409    3410
    1839    1840    1842    1858    1842    1840    1844    2043
    1844    1840    1842    1858    1839    1840    1844    1845
    1839    1840    1842    1841    1842    1840    1844    1845
    1839    1840    1844    2043    1829    1833    1835    1836
    1829    1833    1834    1832    1834    1833    1835    1857
    1829    1833    1834    1856    1834    1833    1835    1836
    1829    1833    1835    1857    1835    1833    1834    1856
    1823    1821    1825    2035    1825    1821    1823    1838
    2034    1821    1825    2035    1823    1821    1825    1826
    2034    1821    1823    1838      54      55      57      60
      59      55      57      60      54      55      57      56
     241      56      57      55     241      56      57      60
      59      55      57      56    1827    1822    1823    1838
    1823    1822    1827    1837    1827    1822    1824    1829
    1823    1822    1827    1828    1823    1822    1824    1829
    1824    1822    1823    1838    1823    1822    1824    1826
    1824    1822    1827    1837    1824    1822    1827    1828
      94      93      98      99      95      93      94     269
      95      93      98      99      94      93      95      97
    1829    1830    1831    1839    1828    1830    1831    1839
    1830    1831    1832    2037    1839    1831    1832    2037
    1830    1831    1832    1834    1839    1831    1832    1834
    1824    1829    1830    1828    1824    1829    1833    1835
    1824    1829    1830    1831    1830    1829    1833    1834
    1824    1829    1833    1834    1830    1829    1833    1835
    1829    1824    1826    1836    1822    1824    1829    1833
    1822    1824    1826    1836    1822    1824    1829    1830
    1826    1824    1829    1833    1826    1824    1829    1830
    1827    1822    1824    1826    1822    1824    1826    1825
    1828    1827    1837    2039    1822    1827    1828    2036
    1822    1827    1828    1830    1822    1827    1837    2039
    1828    1830    1831    1832    1833    1829    1830    1828
    2036    1828    1830    1829    1833    1829    1830    1831
    1829    1830    1831    1832    2036    1828    1830    1831
      55      57      60     245      55      57      60     247
      55      57      60     246      56      57      60     247
      56      57      60     246      56      57      60     245
    1830    1831    1839    1840    1830    1831    1839    2042
    1832    1831    1839    2041    1830    1831    1839    2041
    1832    1831    1839    1840    1832    1831    1839    2042
    1831    1839    1840    1842    1831    1839    1840    1844
    2042    1839    1840    1842    2042    1839    1840    1844
    2041    1839    1840    1844    2041    1839    1840    1842
    1837    1827    1828    2036    1827    1828    1830    1829
    1837    1827    1828    1830    1827    1828    1830    1831
    1506    1505    1507    1509    1695    1505    1506    1696
    1507    1505    1506    1696    1506    1505    1507    1510
    1695    1505    1507    1510      73      92      94      93
      73      92      94     269      98      93      94     269
      98      93      94      92      95      93      94      92
      96      92      94      93    1825    1821    1823    1822
    1827    1822    1823    1821    1822    1823    1838    2040
    1824    1822    1823    1821    1821    1823    1838    2040
    2034    1821    1823    1822      68      73      92      94
      68      73      92      96      94      92      96      97
      94      92      96     270      96      92      94     269
     768     772     798     800     768     772     798     799
     773     772     798     800     773     772     798     799
     799     798     800     984     772     798     800     984
    1502    1497    1499    1503    1503    1499    1501    1504
    1497    1499    1501    1500    1497    1499    1501    1504
    1501    1499    1503    1506    1501    1499    1503    1508
    1502    1497    1499    1501    1497    1499    1503    1506
    1497    1499    1503    1508    1499    1497    1502    1694
    1499    1497    1498    1693    1498    1497    1499    1501
    1498    1497    1499    1503    1498    1497    1502    1694
    1491    1496    1498    1693    1491    1496    1498    1497
    1502    1497    1498    1693    1500    1496    1498    1497
    1502    1497    1498    1496    1499    1497    1498    1496
    1483    1491    1496    1498    1483    1491    1496    1500
    1500    1496    1498    1693    1498    1496    1500    1501
    1499    1503    1506    1505    1499    1503    1506    1696
    1506    1503    1508    1509    1499    1503    1508    1509
    1499    1503    1508    1504    1508    1503    1506    1696
    1506    1503    1508    1504    1500    1501    1504    1508
    1499    1501    1504    1508    1503    1499    1501    1500
    1501    1504    1508    1503    1501    1504    1508    1509
    1503    1508    1509    1507     100     104     105     103
     105     104     128     286     100     104     128     286
    3333    3332    3334    3335    3333    3332    3334    3519
    3333    3332    3334    3518    3517    3332    3334    3519
    3517    3332    3334    3518    3518    3334    3335    3520
    3519    3334    3335    3520    3517    3332    3334    3335
    3332    3334    3335    3520    3518    3334    3335    3331
    3519    3334    3335    3331    3332    3334    3335    3331
     104     105     129     288     103     105     129     287
     104     105     129     287     103     105     129     130
     104     105     129     130     103     105     129     288
     105     129     130     132     105     129     130     134
     287     129     130     134     287     129     130     132
     288     129     130     132     288     129     130     134
      93      98      99     272      93      98      99     100
      93      98      99     271      98      99     100     102
      98      99     100     104     271      99     100     102
     272      99     100     104     272      99     100     102
     271      99     100     104     129     130     132     291
     132     130     134     293     129     130     134     133
     129     130     132     131     132     130     134     133
     134     130     132     291     129     130     134     293
    1498    1496    1500    1526    1491    1496    1500    1526
    1491    1496    1500    1501    1496    1500    1501    1504
    1496    1500    1501    1499    1526    1500    1501    1504
    1526    1500    1501    1499     134     130     132     131
     292     133     134     293     131     133     134     293
     131     133     134     130     292     133     134     130
    1508    1503    1506    1505    1507    1505    1506    1503
    1695    1505    1506    1503     132     131     133     134
     290     131     132     291     290     131     133     292
     133     131     132     291     289     131     132     291
     132     131     133     292     289     131     133     292
     290     131     132     130     133     131     132     130
     289     131     132     130     290     131     133     134
     289     131     133     134     101     103     105     129
     128     104     105     129     100     104     105     129
     128     104     105     103     273     103     105     129
     273     103     105     104    3330    3331    3335    3334
    3333    3331    3335    3334    3330    3331    3335    3520
     104     100     102     106     102     100     104     105
      99     100     104     128      99     100     104     105
      99     100     102     101     102     100     104     128
      99     100     102     106    1918    1913    1915    1958
    1914    1913    1915    1958    1918    1913    1915    1917
    1913    1915    1917    1916    1958    1915    1917    1916
    1715    1536    1537    1535    1540    1535    1537    1536
    1544    1543    1546    1723    1540    1543    1546    1723
    1540    1543    1546    1722    1540    1543    1546    1721
    1544    1543    1546    1722    1544    1543    1546    1721
    1532    1536    1537    1535    1715    1536    1537    1716
    1532    1536    1537    1716    1916    1917    1955    2114
    1915    1917    1955    1956    1916    1917    1955    2115
    1915    1917    1955    2115    1916    1917    1955    1956
    1915    1917    1955    2114    1917    1955    1956    2116
    1544    1542    1545    1720    1541    1542    1545    1720
    1541    1542    1544    1543    1541    1542    1544    1719
    1718    1541    1542    1544    1538    1539    1541    1542
    1538    1539    1541    1718    1539    1541    1542    1544
    1539    1541    1542    1545    1718    1541    1542    1545
    1913    1918    1919    1920    1913    1918    1919    2091
    1913    1918    1919    2092    1918    1919    1920    1922
    1918    1919    1920    1924    2091    1919    1920    1922
    2092    1919    1920    1924    2092    1919    1920    1922
    2091    1919    1920    1924    1534    1533    1538    1717
    1534    1533    1535    1540    1535    1533    1538    1539
    1534    1533    1535    1537    1535    1533    1538    1717
    1535    1533    1534    1547    1538    1533    1534    1547
    1534    1533    1538    1539    1534    1532    1536    1715
    1531    1532    1534    1547    1531    1532    1536    1537
    1531    1532    1534    1533    1531    1532    1536    1715
    1536    1532    1534    1547    1534    1532    1536    1537
    1545    1542    1544    1719    1545    1542    1544    1543
    1533    1534    1547    1724    1538    1533    1534    1532
    1535    1533    1534    1532    1536    1532    1534    1533
    1532    1534    1547    1724    1893    1912    1916    2090
    1893    1912    1916    1917    1912    1916    1917    1915
    1535    1540    1543    1546    1539    1540    1543    1546
    1546    1543    1544    1719    1540    1543    1544    1542
    1540    1543    1544    1719    1546    1543    1544    1542
    1538    1533    1535    1540    1533    1535    1540    1539
    1537    1535    1540    1539    1537    1535    1540    1543
    1540    1535    1537    1716    1533    1535    1537    1536
    1533    1535    1540    1543    1533    1535    1537    1716
    1538    1533    1535    1537    1538    1539    1540    1543
    1539    1540    1543    1544    1541    1539    1540    1535
    1538    1539    1540    1535    1535    1540    1543    1544
    1913    1915    1917    1955    1912    1916    1917    1955
    2090    1916    1917    1915    2090    1916    1917    1955
    1958    1915    1917    1955    1533    1538    1539    1541
    1533    1538    1539    1540    1717    1538    1539    1541
    1541    1539    1540    1543    1540    1539    1541    1542
    1540    1539    1541    1718    1717    1538    1539    1540
    1888    1893    1912    1914    1888    1893    1912    1916
    1914    1912    1916    1917    1914    1912    1916    2090
    1916    1912    1914    2089     792     794     796     795
     792     794     796     801     794     796     801     820
     795     796     801     820     791     795     796     794
     791     795     796     801     980     795     796     794
     980     795     796     801     795     791     793     797
     794     792     793     797     795     791     793     792
     794     792     793     791     802     792     793     791
     802     792     793     797     791     793     797     981
     791     793     797     983     791     793     797     982
     792     793     797     981     792     793     797     983
     792     793     797     982     794     792     802     803
     793     792     802     803     793     792     794     796
     802     792     794     796     790     791     795     980
     790     791     795     796     793     791     795     796
     790     791     793     797     793     791     795     980
     790     791     793     792     792     802     803     985
     792     802     803     804     792     802     803     986
     802     803     804     806     802     803     804     808
     985     803     804     808     986     803     804     808
     985     803     804     806     986     803     804     806
     779     782     783     785     779     782     783     787
     785     783     787     972     804     808     809     807
     987     808     809     988     804     808     809     988
     806     804     808     809     806     804     808     987
     803     804     806     819     803     804     806     805
     803     804     808     987     808     804     806     819
     803     804     808     809    1866    1861    1863    1867
    1861    1863    1865    1864    1866    1861    1863    1865
    1865    1863    1867    1872    1861    1863    1867    1870
    1861    1863    1867    1872    1865    1863    1867    1870
    1861    1863    1865    1868    1867    1863    1865    1868
    3025    3022    3024    3026    3025    3022    3024    3023
    3023    3024    3026    3027    3022    3024    3026    3027
    3187    3023    3024    3022     784     785     788     974
     783     785     788     973     783     785     788     975
     784     785     788     973     784     785     788     975
     783     785     788     974     787     783     785     788
     782     783     785     784     782     783     785     788
     787     783     785     784     969     784     785     788
     969     784     785     783    1867    1863    1865    1864
    1863    1865    1868    1872    1864    1865    1868    1872
     789     790     791     793     789     790     791     795
     976     789     790     791     977     789     790     791
     978     790     791     793     979     790     791     793
     978     790     791     795     979     790     791     795
    3021    3022    3024    3026    3021    3022    3024    3023
    3186    3021    3022    3024    3024    3022    3025    3188
    3021    3022    3025    3188    3057    3058    3060    3059
    3060    3058    3062    3063    3057    3058    3062    3225
    3057    3058    3060    3224    3057    3058    3062    3063
    3060    3058    3062    3225    3062    3058    3060    3224
     778     777     779     781     779     777     778     968
     778     777     779     782     967     777     778     968
     967     777     779     782     781     779     782     783
     777     779     781     780     967     777     779     781
     777     779     782     783     779     781     789     976
     780     781     789     976     779     781     789     977
     779     781     789     790     780     781     789     977
     780     781     789     790     781     789     790     979
     976     789     790     979     781     789     790     978
     781     789     790     791     976     789     790     978
     977     789     790     978     977     789     790     979
     780     775     778     968     771     775     780     781
     771     775     778     968     771     775     780     776
     771     775     778     777     778     775     780     781
     778     775     780     776     782     783     787     972
     782     783     787     786     785     783     787     786
    3121    3117    3119    3124    3072    3117    3119    3124
    3072    3117    3119    3118    3120    3118    3119    3124
    3121    3117    3119    3118    3125    3118    3119    3124
    3120    3118    3119    3117     763     768     772     773
     763     768     772     798     770     768     772     798
     768     772     773     776     768     772     773     771
     798     772     773     776     798     772     773     771
    3061    3059    3072    3117    3061    3059    3060    3224
    3060    3059    3061    3063    3060    3059    3072    3117
    3060    3059    3061    3064     773     776     780     781
     773     776     780     775     775     780     781     779
     775     771     773     772     771     773     776     780
     772     773     776     780    3072    3117    3121    3271
    3072    3117    3121    3122    3117    3121    3122    3272
    3271    3121    3122    3272    3117    3121    3122    3120
    3119    3118    3125    3276    3119    3118    3120    3270
    3125    3118    3120    3270    3119    3118    3120    3122
    3120    3118    3125    3276    3125    3118    3119    3117
    3125    3118    3120    3122    3072    3059    3060    3224
    3062    3058    3060    3059    3072    3059    3060    3058
    3061    3059    3060    3058    3118    3120    3122    3121
    3270    3120    3122    3272    3118    3120    3122    3272
     782     779     781     789     777     779     781     789
     775     780     781     789     776     780     781     779
     776     780     781     789     782     779     781     780
    3059    3072    3117    3121    3059    3072    3117    3119
    3119    3117    3121    3122    3119    3117    3121    3271
    3271    3121    3122    3120    3270    3120    3122    3121
    3118    3119    3124    3123    3117    3119    3124    3275
    3117    3119    3124    3274    3118    3119    3124    3275
    3117    3119    3124    3123    3118    3119    3124    3274
    3125    3123    3124    3275    3125    3123    3124    3274
    3273    3123    3124    3275    3273    3123    3124    3274
    3273    3123    3124    3119    3125    3123    3124    3119
      98      93      95     138      94      93      95     138
      98      93      95      97      93      95      97      96
     138      95      97      96      97      95     138     298
      97      95     138     299      93      95     138     298
      93      95     138     137      97      95     138     137
      93      95     138     299     297     137     138      95
    3064    3065    3067    3066    3064    3065    3067    3068
    3059    3061    3064    3073    3063    3061    3064    3073
    3061    3064    3065    3226    3073    3064    3065    3226
    3061    3064    3065    3067    3073    3064    3065    3067
    3065    3064    3073    3230    3065    3064    3073    3229
    3065    3064    3073    3231    3061    3064    3073    3229
    3061    3064    3073    3231    3061    3064    3073    3230
     102     101     103     273     108     101     103     273
     102     101     108     107     103     101     102     106
     102     101     108     111     103     101     108     107
     103     101     108     111     102     101     103     105
     108     101     102     106    3074    3078    3079    3081
    3066    3067    3068    3069    3226    3065    3067    3066
    3226    3065    3067    3068    3065    3067    3068    3074
    3070    3066    3067    3068    3065    3067    3068    3069
    3070    3066    3067    3065    3066    3067    3068    3074
     106     107     108     111     101     108     111     275
     106     107     108     101     107     108     111     275
     109     107     108     101     101     108     111     112
     107     108     111     112     108     111     112     110
     108     111     112     114     275     111     112     114
     101     102     106     107     108     101     102     100
     103     101     102     100     100     102     106     107
     104     100     102     101    3075    3074    3078    3079
    3068    3074    3075    3080    3068    3074    3075    3077
    3075    3074    3078    3234    3068    3074    3078    3079
    3078    3074    3075    3080    3068    3074    3078    3234
     108     101     103     105     101     103     105     104
    3332    3333    3336    3521    3331    3333    3336    3521
    3331    3333    3336    3523    3331    3333    3336    3522
    3332    3333    3336    3523    3332    3333    3336    3522
    3061    3063    3066    3067    3225    3062    3063    3061
    3061    3063    3066    3070    3064    3061    3063    3062
    3062    3063    3066    3067    3225    3062    3063    3066
    3062    3063    3066    3070    3072    3059    3061    3063
    3064    3061    3063    3066    3059    3061    3063    3062
    3059    3061    3064    3065    3063    3061    3064    3065
    3059    3061    3063    3066    3072    3059    3061    3064
    3067    3068    3074    3075    3069    3068    3074    3078
    3069    3068    3074    3075    3067    3068    3074    3078
    3074    3068    3069    3076    3067    3068    3069    3076
    3067    3068    3069    3071    3335    3331    3333    3336
    3330    3331    3333    3332    3330    3331    3333    3336
    3335    3331    3333    3332    3517    3332    3333    3336
    3517    3332    3333    3331    3058    3062    3063    3061
    3058    3062    3063    3066    3327    3330    3331    3333
    3327    3330    3331    3335    3333    3331    3335    3520
     112     114     115     117     112     114     115     119
     117     115     119     279     119     115     117     278
     117     115     119     120     114     115     119     120
     114     115     119     279     115     119     120     280
     279     119     120     280     115     119     120     118
     113     110     112     114     111     112     114     115
     110     112     114     115     113     110     112     111
     275     111     112     110    3334    3332    3333    3336
    3334    3332    3333    3331     102     106     107     108
     102     106     107     109     108     107     109     274
     109     107     108     111     108     107     109     110
     812     807     809     808     987     808     809     807
    1863    1867    1870    1869    1870    1867    1872    1873
    1863    1867    1872    1873    1863    1867    1872    1868
    1872    1867    1870    2060    1863    1867    1870    2060
    1870    1867    1872    1868     810     805     806     819
     807     805     806     819     806     805     807     812
     806     805     807     809     806     805     810     811
     807     805     810     811     806     805     810     989
     807     805     810     989    1865    1868    1872    1867
    1865    1868    1872    1873    1867    1872    1873    1871
    1875    1877    1880    2065    1875    1877    1880    2067
    1876    1877    1880    2066    1876    1877    1880    2065
    1875    1877    1880    2066    1876    1877    1880    2067
    3235    3080    3081    3079     807     805     806     804
     804     806     819     996     805     806     819     996
     808     804     806     805     810     805     806     804
    1869    1871    1873    1872    2059    1869    1871    1873
    1869    1871    1874    1875    1873    1871    1874    1875
    1878    1876    1877    1880    1878    1876    1877    1875
    3074    3078    3079    3082    3078    3079    3081    3080
    3234    3078    3079    3082    3234    3078    3079    3081
    3082    3079    3081    3236    3078    3079    3081    3236
    3082    3079    3081    3080    3078    3079    3082    3237
    3081    3079    3082    3237    3078    3079    3082    3083
    3081    3079    3082    3083    3078    3079    3082    3238
    3081    3079    3082    3238    3237    3082    3083    3240
    3237    3082    3083    3239    3238    3082    3083    3240
    3079    3082    3083    3239    3238    3082    3083    3239
    3079    3082    3083    3240    1874    1875    1879    2064
    1874    1875    1879    1878    1877    1875    1879    1878
    3075    3080    3081    3079    3075    3080    3081    3236
    3235    3080    3081    3236    2059    1869    1870    2060
    1870    1869    1871    1873    1870    1869    1871    1874
    1871    1869    1870    2060    2059    1869    1871    1874
    1874    1871    1873    1881    1869    1871    1873    1881
    1868    1872    1873    1881    1867    1872    1873    1881
    1868    1872    1873    1871    1874    1871    1873    1872
    1879    1875    1877    1880    1874    1875    1877    1880
    1874    1875    1877    1876    1879    1875    1877    1876
    2061    1876    1877    1880    2061    1876    1877    1875
    3083    3084    3085    3087    3239    3083    3084    3085
    3083    3084    3085    3089    3240    3083    3084    3085
    3242    3084    3085    3087    3241    3084    3085    3089
    3241    3084    3085    3087    3242    3084    3085    3089
    1871    1874    1875    1879    1871    1874    1875    1877
    1877    1875    1879    2064     810     805     807     812
     812     807     809     988     809     807     812     811
     809     807     812     815     805     807     812     811
     805     807     809     808     805     807     812     815
     805     807     809     988     810     805     807     809
    3079    3082    3083    3084    3239    3083    3084    3241
    3238    3082    3083    3084    3237    3082    3083    3084
    3239    3083    3084    3242    3082    3083    3084    3242
    3082    3083    3084    3241    3240    3083    3084    3242
    3240    3083    3084    3241    3082    3083    3084    3085
    2059    1869    1870    1867    1871    1869    1870    1867
    1872    1867    1870    1869    1872    1873    1881    2068
    1871    1873    1881    2068    1872    1873    1881    2069
    1872    1873    1881    1882    1871    1873    1881    2069
    1871    1873    1881    1882    2068    1881    1882    2070
    1873    1881    1882    2071    2069    1881    1882    2071
    2068    1881    1882    2071    2069    1881    1882    2070
    1873    1881    1882    2070    1873    1881    1882    1883
    2061    1876    1878    2063    2061    1876    1878    2062
    1877    1876    1878    2063    1877    1876    1878    2062
    1877    1876    1878    1879    2063    1878    1879    2064
    1876    1878    1879    2064    2061    1876    1878    1879
    2062    1878    1879    2064    2062    1878    1879    1875
    2063    1878    1879    1875    1876    1878    1879    1875
     810     811     812     815     813     811     812     807
     811     812     815     816     810     811     812     807
     807     812     815     816    3077    3075    3080    3235
    3074    3075    3077    3076    3074    3075    3080    3081
    3078    3074    3075    3077    3077    3075    3080    3081
    3074    3075    3080    3235    3074    3075    3077    3233
    3080    3075    3077    3233    2210    2205    2207    2209
    2209    2207    2212    2213    2212    2207    2209    2408
    2205    2207    2209    2408    2205    2207    2209    2208
    2205    2207    2212    2213    2207    2212    2214    2410
    2207    2212    2214    2215    2213    2212    2214    2410
    2213    2212    2214    2409    2213    2212    2214    2215
    2207    2212    2214    2409    2212    2214    2215    2411
    2207    2205    2210    2211    2210    2205    2207    2212
    2206    2205    2210    2211    2210    2205    2206    2222
    2206    2205    2207    2212    2206    2205    2207    2209
    2207    2205    2206    2222    2205    2207    2212    2214
    2209    2207    2212    2214    2207    2212    2213    2211
    2214    2212    2213    2217    2214    2212    2213    2211
    2207    2205    2210    2223    2206    2205    2210    2223
    2205    2210    2211    2213    2205    2210    2211    2219
    2223    2210    2211    2213    2223    2210    2211    2219
    2211    2213    2217    2216    2212    2213    2217    2413
    2211    2213    2217    2412    2212    2213    2217    2412
    2212    2213    2217    2216    2211    2213    2217    2413
    2215    2216    2217    2413    2218    2216    2217    2413
    2215    2216    2217    2412    2218    2216    2217    2412
    2218    2216    2217    2213    2215    2216    2217    2213
    2211    2219    2224    2226    2211    2219    2224    2228
    2228    2224    2226    2421    2226    2224    2228    2229
    2226    2224    2228    2254    2219    2224    2228    2254
    2219    2224    2228    2229    2224    2228    2229    2232
    2224    2228    2229    2227    2254    2228    2229    2232
    2254    2228    2229    2227    2229    2228    2254    2256
    2229    2228    2254    2255    2224    2228    2254    2256
    2224    2228    2254    2255    2255    2254    2256    2440
    2228    2254    2256    2440    2210    2211    2219    2224
    2213    2211    2219    2224    2210    2211    2213    2212
    2210    2211    2213    2217    2207    2212    2213    2217
    2219    2211    2213    2217    2219    2211    2213    2212
    2407    2208    2209    2207    2212    2207    2209    2208
     786     784     785     788     786     784     785     783
    2212    2214    2215    2327    2212    2214    2215    2216
    2409    2214    2215    2411    2410    2214    2215    2411
    2216    2215    2327    2491    2216    2215    2327    2490
    2410    2214    2215    2327    2410    2214    2215    2216
    2411    2215    2327    2491    2409    2214    2215    2327
    2409    2214    2215    2216    2411    2215    2327    2490
    2214    2215    2327    2491    2214    2215    2216    2218
    2214    2215    2327    2490    2214    2215    2216    2217
    2327    2215    2216    2218    2327    2215    2216    2217
    2411    2215    2216    2218    2411    2215    2216    2217
    2219    2224    2226    2421    2219    2224    2226    2225
    2230    2225    2226    2421    2228    2224    2226    2225
    2230    2225    2226    2224    2227    2225    2226    2224
    3018    3019    3021    3186    3018    3019    3021    3022
    3019    3021    3022    3024    3019    3021    3022    3025
    3186    3021    3022    3025    3014    3018    3019    3020
    3014    3018    3019    3021    3020    3019    3021    3022
    3021    3019    3020    3023    3020    3019    3021    3186
    2211    2210    2223    2418    2211    2210    2223    2420
    2205    2210    2223    2419    2211    2210    2223    2419
    2205    2210    2223    2418    2205    2210    2223    2420
     862     858     860     859    3005    3010    3011    3184
    3005    3010    3011    3012    3005    3010    3011    3183
    3010    3011    3012    3014    3010    3011    3012    3016
    3183    3011    3012    3016    3184    3011    3012    3016
    3183    3011    3012    3014    3184    3011    3012    3014
    2207    2205    2206    2204    2210    2205    2206    2204
    2208    2204    2206    2205    2204    2206    2222    2417
    2205    2206    2222    2417    2204    2208    2209    2207
    2407    2208    2209    2408    2204    2208    2209    2408
    2216    2215    2327    2323    2214    2215    2327    2323
    2411    2215    2327    2323    2484    2323    2327    2215
    2227    2229    2232    2236    2228    2229    2232    2236
    2231    2227    2229    2228    2992    2988    2990    3003
    2987    2988    2992    2993    2990    2988    2992    2993
    2987    2988    2992    3171    2990    2988    2992    3171
    2987    2988    2990    3003    2987    2988    2990    2989
    3120    3118    3125    3123    3119    3118    3125    3123
    3273    3123    3125    3118     785     784     786     970
     969     784     786     971     969     784     786     970
     785     784     786     787     785     784     786     971
     971     786     787     972     970     786     787     972
     784     786     787     972     969     784     786     787
     971     786     787     783     970     786     787     783
     784     786     787     783    2992    2988    2990    2989
    2988    2990    3003    3180    2994    2989    2990    2988
    2991    2989    2990    2988    2989    2990    3003    3180
    3124    3123    3125    3276    3273    3123    3125    3276
    3124    3123    3125    3118    3008    3009    3047    3206
    3007    3009    3047    3207    3007    3009    3047    3206
    3008    3009    3047    3048    3007    3009    3047    3048
    3008    3009    3047    3207    3009    3047    3048    3208
    3221    3056    3057    3058    3220    3056    3057    3058
    3056    3057    3058    3060    3056    3057    3058    3062
    3223    3057    3058    3060    3222    3057    3058    3060
    3223    3057    3058    3062    3222    3057    3058    3062
    2942    2943    3055    3051    2944    2943    3055    3051
    3139    2943    3055    3051    3212    3051    3055    2943
    3005    3007    3009    3047    3004    3008    3009    3047
    3050    3007    3009    3047    3182    3008    3009    3007
    3182    3008    3009    3047    3006    3005    3007    3009
    3007    3005    3006    3181    3006    3005    3010    3011
    3007    3005    3010    3011    1018     859     860    1019
    1018     859     861    1020     861     859     860    1019
    1017     859     860    1019     860     859     861     862
    1017     859     861    1020     860     859     861    1020
    1017     859     860     858    1018     859     860     858
     861     859     860     858    1017     859     861     862
    1018     859     861     862    3010    3005    3007    3050
    3006    3005    3007    3050    3010    3005    3007    3009
    3005    3007    3009    3008    3050    3007    3009    3008
    2933    2935    2940    2942    2937    2935    2940    2942
    2942    2940    2941    2945    2935    2940    2941    2939
    2942    2940    2941    2939    3047    3048    3051    3052
    3055    3051    3052    3056    3048    3051    3052    3213
    3048    3051    3055    3218    3212    3051    3055    3219
    3208    3048    3051    3055    3212    3051    3052    3213
    3048    3051    3055    3219    3052    3051    3055    3219
    3055    3051    3052    3213    3052    3051    3055    3218
    3208    3048    3051    3052    3048    3051    3052    3056
    3212    3051    3055    3218    3048    3051    3052    3053
    3052    3051    3055    2943    3048    3051    3055    2943
    3053    3052    3056    3221    3213    3052    3056    3221
    3055    3051    3052    3053    3051    3052    3053    3214
    3053    3052    3056    3220    3051    3052    3053    3215
    3212    3051    3052    3053    3051    3052    3056    3057
    3056    3052    3053    3215    3213    3052    3053    3215
    3053    3052    3056    3057    3051    3052    3056    3221
    3056    3052    3053    3214    3213    3052    3056    3220
    3212    3051    3052    3056    3213    3052    3053    3214
    3051    3052    3053    3054    3051    3052    3056    3220
    3056    3052    3053    3054    3221    3056    3057    3222
    3220    3056    3057    3223    3052    3056    3057    3223
    3220    3056    3057    3222    3052    3056    3057    3222
    3213    3052    3056    3057    3052    3056    3057    3058
    3221    3056    3057    3223    2940    2942    2943    2944
    2940    2942    2943    3055    3137    2942    2943    3139
    3138    2942    2943    3139    3137    2942    2943    3055
    2942    2943    3055    3219    3139    2943    3055    3219
    2942    2943    3055    3218    2942    2943    2944    2945
    3138    2942    2943    3055    2944    2943    3055    3219
    2942    2943    2944    2946    2944    2943    3055    3218
    3138    2942    2943    2944    3137    2942    2943    2944
    3139    2943    3055    3218    3139    2943    2944    2946
    3139    2943    2944    2945    3055    2943    2944    2945
    3055    2943    2944    2946    3048    3049    3054    3217
    3054    3049    3050    3210    3208    3048    3049    3054
    3209    3049    3050    3211    3208    3048    3049    3050
    3050    3049    3054    3216    3048    3049    3054    3053
    3209    3049    3050    3210    3209    3049    3054    3216
    3048    3049    3050    3211    3050    3049    3054    3217
    3209    3049    3054    3217    3048    3049    3050    3210
    3048    3049    3054    3216    3050    3049    3054    3053
    3054    3049    3050    3211    3048    3049    3050    3007
    3054    3049    3050    3007    3009    3047    3048    3049
    3009    3047    3048    3051    3206    3047    3048    3208
    3207    3047    3048    3208    3208    3048    3051    3212
    3051    3048    3049    3054    3206    3047    3048    3049
    3047    3048    3049    3050    3047    3048    3049    3054
    3047    3048    3051    3212    3051    3048    3049    3209
    3207    3047    3048    3051    3049    3048    3051    3055
    3047    3048    3049    3209    3206    3047    3048    3051
    3049    3048    3051    3052    3049    3048    3051    3212
    3208    3048    3049    3209    3207    3047    3048    3049
    3047    3048    3051    3055    3051    3048    3049    3050
    3215    3053    3054    3049    3214    3053    3054    3049
    3209    3049    3054    3053    3052    3053    3054    3049
    3214    3053    3054    3217    3052    3053    3054    3217
    3215    3053    3054    3217    3213    3052    3053    3054
    3052    3053    3054    3216    3215    3053    3054    3216
    3214    3053    3054    3216    2935    2940    2942    3138
    2941    2940    2942    3137    2935    2940    2942    3137
    2941    2940    2942    2943    2935    2940    2942    2943
    2941    2940    2942    3138    2940    2942    2943    3139
    3009    3007    3050    3049    3005    3007    3050    3049
    3005    3007    3050    3211    3009    3007    3050    3210
    3005    3007    3050    3210    3009    3007    3050    3211
    3209    3049    3050    3007     121     125     126     124
     283     125     126     284     121     125     126     284
     118     121     125     283     118     121     123     281
     123     121     125     126     125     121     123     281
     118     121     125     126     123     121     125     283
     118     121     123     122     116     118     121     123
     116     118     121     125     120     118     121     123
     120     118     121     125     116     118     120     119
     121     118     120     280     277     116     118     121
     116     118     120     280     277     116     118     120
     283     125     126     124     282     124     126     125
     127     122     123     281     125     121     123     122
     127     122     123     121     124     122     123     121
     117     116     118     120     277     116     117     278
     118     116     117     278     117     116     118     121
    3232    3076    3077    3233    3069    3076    3077    3075
    3069    3076    3077    3233    3076    3069    3071    3070
    3227    3070    3071    3069    3135    2936    2937    2935
    2940    2935    2937    2936     127     122     124     282
     122     124     126     125     282     124     126     284
     122     124     126     284     127     122     124     126
    2923    2924    2926    2948    2923    2924    2926    2925
    3129    2924    2926    2948    2932    2936    2937    2935
    2932    2936    2937    3136    3135    2936    2937    3136
     123     122     124     126     123     122     127     285
     123     122     124     282     124     122     123     281
     124     122     127     285    2916    2921    2922    2920
    2916    2921    2925    2927    2916    2921    2922    2923
    2922    2921    2925    2926    2922    2921    2925    2927
    2916    2921    2925    2926    2918    2916    2921    2925
    2921    2916    2918    2928    2914    2916    2921    2925
    2914    2916    2918    2928    2914    2916    2918    2917
    2914    2916    2921    2922    2918    2916    2921    2922
    2919    2914    2916    2918    3076    3069    3071    3228
    3068    3069    3071    3228    3068    3069    3076    3077
    3068    3069    3076    3232    3071    3069    3076    3232
    3074    3068    3069    3071    3068    3069    3071    3070
    3071    3069    3076    3077     114     115     117     116
     114     115     117     278     118     116     117     115
     277     116     117     115     119     115     117     116
    2916    2914    2915    2930    2919    2914    2916    2921
    2915    2914    2919    2929    2915    2914    2919    2920
    2916    2914    2919    2929    2915    2914    2916    2921
    2916    2914    2919    2920    2915    2914    2916    2918
    2919    2914    2915    2930    3227    3070    3071    3228
    3066    3070    3071    3069    3066    3070    3071    3228
     121     118     120     119     279     119     120     118
    3171    2992    2993    2991    2996    2991    2993    2992
    2916    2914    2915    2913    2913    2915    2930    3132
    3126    2913    2915    2914    2917    2913    2915    2914
    2914    2915    2930    3132    2919    2914    2915    2913
    2994    2989    2991    2996    2996    2991    2993    3172
    2989    2991    2996    2995    2989    2991    2993    2992
    2989    2991    2996    2999    2989    2991    2993    3172
    2994    2989    2991    2993    2993    2991    2996    2995
    2993    2991    2996    2999    2917    2913    2915    2930
    2915    2913    2917    3127    3126    2913    2917    3127
    2915    2913    2917    2918    3126    2913    2915    2930
    2925    2921    2922    2923    3128    2920    2922    2921
    2925    2921    2922    2920    2921    2922    2923    2924
    3128    2920    2922    2923    2920    2922    2923    2924
    3171    2992    2993    3172    2988    2992    2993    3172
    2988    2992    2993    2991    2940    2935    2937    3136
    2937    2935    2940    2941    2933    2935    2937    3136
    2933    2935    2937    2936    2933    2935    2940    2941
    2938    2933    2935    2937    2921    2922    2923    2931
    2920    2922    2923    2931    2922    2923    2924    3129
    2931    2923    2924    3129    2922    2923    2924    2926
    2931    2923    2924    2926    3063    3066    3067    3068
    3063    3066    3070    3071    3067    3066    3070    3071
    3063    3066    3070    3227    3067    3066    3070    3227
    3063    3066    3067    3065    3080    3075    3077    3076
    3232    3076    3077    3075    2400    2192    2194    2195
    2197    2193    2194    2192    2192    2194    2195    2196
    2400    2192    2194    2193    2197    2193    2194    2195
    2193    2194    2195    2196    2926    2925    2927    2949
    2927    2925    2926    2948    2926    2925    2927    2928
    2921    2925    2926    2948    2921    2925    2927    2949
    2921    2925    2927    2928    2921    2925    2926    2924
    2927    2925    2926    2924    2924    2926    2948    3143
    2925    2926    2948    3143    2924    2926    2948    3142
    2925    2926    2948    3142    3129    2924    2926    2925
    2949    2927    2928    3130    2925    2927    2928    2918
    2949    2927    2928    2918    2201    2191    2192    2400
    2201    2191    2192    2194    2191    2192    2194    2193
    2191    2192    2194    2195     810     811     813     814
     810     811     813     990     811     813     814     817
     811     813     814     816     990     813     814     817
     813     814     816     991     990     813     814     816
     813     814     816     815     813     814     817     992
     816     814     817     992    3127    2917    2918    2916
    2916    2918    2928    2927    2917    2918    2928    2927
    3127    2917    2918    2928    2921    2916    2918    2917
    2916    2918    2928    3130    2917    2918    2928    3130
    2913    2917    2918    2928    2913    2917    2918    2916
    3126    2913    2917    2918    2186    2191    2192    2400
    2192    2191    2201    2403    2186    2191    2192    2194
    2186    2191    2201    2403     527     532     533     688
     687     532     533     688     527     532     533     531
    2925    2927    2949    3144    2928    2927    2949    3144
    2925    2927    2928    3130     805     810     811     812
     805     810     811     813     812     811     813     814
     812     811     813     990     989     810     811     813
     989     810     811     812     813     811     812     815
    2196    2195    2203    2204    2194    2195    2203    2405
    2196    2195    2203    2406    2194    2195    2203    2204
    2194    2195    2203    2406    2196    2195    2203    2405
    2195    2203    2204    2206    2195    2203    2204    2208
    2405    2203    2204    2206    2406    2203    2204    2208
    2406    2203    2204    2206    2405    2203    2204    2208
    2206    2204    2208    2407    2203    2204    2208    2407
    2203    2204    2208    2209    2203    2204    2206    2222
    2206    2204    2208    2209    2203    2204    2206    2205
    2208    2204    2206    2222     394     395     507     503
     396     395     507     503     591     395     507     503
     664     503     507     395     353     201     202     196
     200     201     202     196     344     196     202     201
     352     201     202     196     203     200     201     353
     203     200     201     352     203     200     201     202
     352     201     202     354     353     201     202     355
     200     201     202     355     200     201     202     354
     351     200     201     202     353     201     202     354
     352     201     202     355    2249    2248    2250    2252
    2249    2248    2258    2259    2250    2248    2258    2259
    2258    2248    2250    2252    2246    2247    2251    2436
    2246    2247    2249    2253    2246    2247    2249    2248
    2249    2247    2251    2252    2249    2247    2251    2436
    2246    2247    2251    2252    2248    2258    2259    2441
    2248    2258    2259    2260    2248    2258    2259    2442
    2258    2259    2260    2262    2258    2259    2260    2264
    2442    2259    2260    2264    2441    2259    2260    2264
    2442    2259    2260    2262    2441    2259    2260    2262
     349     199     200     351     350     199     200     351
     199     200     201     352     199     200     201     353
     351     200     201     353     199     200     203     356
     199     200     201     202     351     200     201     352
     350     199     200     201     351     200     203     356
     201     200     203     356     349     199     200     201
     461     499     500     501     658     499     500     660
     461     499     500     503     659     499     500     660
     659     499     500     503     660     500     501     661
     499     500     503     664     501     500     503     664
     658     499     500     501     499     500     501     661
     501     500     503     507     659     499     500     501
     501     500     503     504     503     500     501     661
     499     500     503     507     658     499     500     503
     660     500     503     664     503     500     501     506
     499     500     501     502     499     500     501     506
     503     500     501     502    2251    2247    2249    2253
    2250    2248    2249    2253    2250    2248    2249    2247
    2258    2248    2249    2253    2251    2247    2249    2248
    2258    2248    2249    2247     508     504     505     667
     505     504     508     673     507     503     504     505
     503     504     508     673     508     504     505     666
     664     503     504     508     505     504     508     672
     503     504     505     667     665     504     508     673
     503     504     505     506     503     504     508     672
     503     504     505     666     665     504     508     672
     665     504     505     666     505     504     508     509
     665     504     505     667     664     503     504     505
     503     504     508     509     508     504     505     506
    2247    2251    2252    2257    2247    2251    2252    2250
    2436    2251    2252    2250    2436    2251    2252    2257
     194     195     196     202     194     195     196     197
     197     196     202     201     344     196     202     355
     343     195     196     197     195     196     197     346
     197     196     202     354     202     196     197     345
     195     196     202     201     195     196     197     345
     197     196     202     355     202     196     197     346
     195     196     202     354     344     196     197     345
     199     195     196     197     343     195     196     202
     344     196     202     354     195     196     197     198
     195     196     202     355     344     196     197     346
     202     196     197     198    2433    2245    2246    2247
    2432    2245    2246    2247    2245    2246    2247    2249
    2245    2246    2247    2251    2434    2246    2247    2249
    2435    2246    2247    2251    2435    2246    2247    2249
    2434    2246    2247    2251     499     500     503     504
     500     503     507     671     507     503     504     665
     500     503     507     670     507     503     504     508
     664     503     507     671     500     503     504     665
     664     503     504     665     664     503     507     670
     504     503     507     670     660     500     503     507
     660     500     503     504     500     503     504     508
     504     503     507     671     500     503     504     505
     500     503     507     395     504     503     507     395
    1381    1223    1224    1383    1381    1223    1225    1384
    1382    1223    1225    1384    1224    1223    1225    1226
    1224    1223    1225    1384    1225    1223    1224    1383
    1382    1223    1224    1383    1225    1223    1224    1222
    1382    1223    1224    1222    1381    1223    1224    1222
    1382    1223    1225    1226    1381    1223    1225    1226
    2259    2260    2264    2265    2259    2260    2264    2443
    2259    2260    2262    2275    2262    2260    2264    2265
    2259    2260    2262    2261    2262    2260    2264    2443
    2264    2260    2262    2275     392     393     397     592
     392     393     397     396     391     393     397     593
     391     393     397     592     391     393     397     396
     392     393     397     593     398     396     397     592
     395     396     397     593     398     396     397     593
     395     396     397     592     395     396     397     393
     398     396     397     393    2247    2249    2253    2437
    2247    2249    2253    2439    2248    2249    2253    2437
    2248    2249    2253    2439    2248    2249    2253    2438
    2247    2249    2253    2438    1223    1225    1226    1385
    1384    1225    1226    1385    1223    1225    1226    1222
     346     197     198     347     196     197     198     347
     346     197     198     348     345     197     198     348
     344     196     197     198     345     197     198     347
     196     197     198     348     196     197     198     192
    2443    2264    2265    2444    2260    2264    2265    2444
    2260    2264    2265    2263     192     194     195     199
     192     194     195     196     193     194     195     343
     193     194     195     199     193     194     195     196
     192     194     195     343     194     195     196     344
     194     195     199     349     194     195     199     350
     199     195     196     344     196     195     199     349
     343     195     199     350     196     195     199     350
     343     195     196     344     199     195     196     202
     343     195     199     349     196     195     199     200
     459     461     499     500     460     461     499     658
     459     461     499     658     459     461     499     659
     460     461     499     500     460     461     499     659
     461     499     500     660     504     505     506     669
     667     505     506     669     666     505     506     668
     665     504     505     506     504     505     506     668
     667     505     506     668     666     505     506     669
     194     195     199     200     343     195     199     200
     195     199     200     201     195     199     200     203
     195     199     200     351     349     199     200     203
     350     199     200     203     590     394     395     591
     589     394     395     591     392     394     395     396
     392     394     395     507     590     394     395     396
     394     395     396     398     591     395     507     671
     394     395     396     397     394     395     507     670
     396     395     507     671     591     395     507     670
     394     395     507     671     396     395     507     670
     590     394     395     507     589     394     395     507
     589     394     395     396     507     395     396     397
     507     395     396     398     591     395     396     397
     591     395     396     398    2248    2250    2252    2257
    2248    2250    2252    2251    2251    2252    2257    2276
    2250    2252    2257    2276    1299    1298    1300    1450
    1305    1298    1300    1450    1300    1298    1305    1456
    1299    1298    1300    1302    1299    1298    1305    1456
    1305    1298    1299    1297    1305    1298    1300    1302
     332     180     182     181     181     182     188     189
     180     182     188     191     332     180     182     188
     185     181     182     180     180     182     188     189
     181     182     188     191    2897    2747    2748    2899
    2898    2747    2748    2899    2747    2748    2749    2901
    2749    2748    2751    2904    2747    2748    2749    2900
    2899    2748    2751    2904    2747    2748    2751    2904
    2898    2747    2748    2749    2899    2748    2749    2901
    2897    2747    2748    2749    2899    2748    2749    2900
    2747    2748    2749    2750    1453    1303    1305    1456
    1304    1303    1305    1456    1304    1303    1305    1298
    1299    1298    1305    1303    1300    1298    1305    1303
    1453    1303    1305    1298    1252    1297    1299    1298
    1252    1297    1299    1304    1301    1297    1299    1304
    1300    1298    1299    1304    1305    1298    1299    1304
    1301    1297    1299    1298    1300    1298    1299    1297
     331     179     180     332     175     179     180     332
     175     179     180     182    2286    2290    2291    2293
    2286    2290    2291    2292    2292    2291    2293    2458
    2293    2291    2292    2295    2292    2291    2293    2294
    2751    2748    2749    2900    2751    2748    2749    2901
    2899    2748    2749    2750    2748    2749    2750    2902
    2900    2749    2750    2903    2751    2748    2749    2750
    2901    2749    2750    2903    2748    2749    2750    2903
    2900    2749    2750    2902    2901    2749    2750    2902
     182     188     189     193     191     188     189     193
     182     188     189     190     189     188     191     192
     182     188     191     341     182     188     191     192
     189     188     191     341    2290    2291    2293    2294
    2290    2291    2293    2458    2291    2293    2294    2296
    2291    2293    2294    2297    2458    2293    2294    2297
     189     193     194     192     188     191     192     194
     188     191     192     198     191     192     194     193
     341     191     192     198     341     191     192     194
     198     192     194     193    2293    2294    2296    2298
    2293    2294    2296    2295    2296    2294    2297    2460
    2458    2293    2294    2296    2293    2294    2297    2460
     179     180     182     188     179     180     182     181
     331     179     180     182     194     192     198     347
     191     192     198     197     191     192     198     348
     191     192     198     347     194     192     198     197
     194     192     198     348     345     197     198     192
     346     197     198     192    2901    2749    2750    2744
    2892    2744    2750    2749    2900    2749    2750    2744
    2748    2749    2750    2744    1298    1299    1304    1455
    1297    1299    1304    1454    1298    1299    1304    1454
    1297    1299    1304    1303    1298    1299    1304    1303
    1297    1299    1304    1455    1305    1303    1304    1454
    1453    1303    1304    1454    1305    1303    1304    1455
    1453    1303    1304    1455    1305    1303    1304    1299
    1453    1303    1304    1299     191     192     194     195
     189     193     194     195     198     192     194     195
     342     193     194     192     342     193     194     195
     193     189     190     340     188     189     193     194
     188     189     190     340     190     189     193     342
     191     188     189     190     190     189     193     194
     188     189     193     342    2742    2740    2746    2896
    2739    2740    2746    2895    2742    2740    2746    2745
    2739    2740    2746    2745    2742    2740    2746    2895
    2739    2740    2746    2896    2894    2745    2746    2740
    2893    2745    2746    2740    2893    2745    2746    2896
    2744    2745    2746    2895    2894    2745    2746    2896
    2894    2745    2746    2895    2892    2744    2745    2746
    2893    2745    2746    2895    2744    2745    2746    2896
    2744    2745    2746    2740    1943    1941    1945    1946
    1945    1941    1943    2101    1938    1941    1945    2103
    1938    1941    1943    1942    1938    1941    1943    2101
    1938    1941    1945    1946    1943    1941    1945    2103
    2742    2743    2744    2750    2742    2743    2744    2745
    2892    2744    2750    2903    2745    2744    2750    2903
    2750    2744    2745    2894    2891    2743    2744    2745
    2743    2744    2750    2903    2892    2744    2750    2902
    2743    2744    2745    2894    2745    2744    2750    2902
    2750    2744    2745    2893    2747    2743    2744    2745
    2743    2744    2750    2902    2892    2744    2745    2894
    2743    2744    2745    2893    2745    2744    2750    2749
    2892    2744    2745    2893    2743    2744    2750    2749
    2891    2743    2744    2750    2743    2744    2745    2746
    2750    2744    2745    2746    1947    1942    1943    2101
    1945    1941    1943    1942    1947    1942    1943    1941
    1944    1942    1943    1941    2103    1945    1946    1944
    2102    1944    1946    1945    1941    1945    1946    1944
    2103    1945    1946    2104    1941    1945    1946    2104
    1943    1942    1947    2105    1943    1942    1944    2102
    1943    1942    1944    1946    1944    1942    1947    2105
    1944    1942    1943    2101    1618    1619    1621    1777
    1618    1619    1621    1620    1618    1619    1624    1625
    1624    1619    1621    1777    1621    1619    1624    1779
    1618    1619    1624    1779    1622    1618    1619    1621
    1621    1619    1624    1625    1779    1624    1625    1780
    1619    1624    1625    1623    1619    1624    1625    1780
    1776    1620    1621    1619    1624    1619    1621    1620
    2740    2742    2743    2891    2741    2742    2743    2891
    2740    2742    2743    2747    2740    2742    2743    2744
    2741    2742    2743    2744    2741    2742    2743    2747
    2891    2743    2747    2898    2891    2743    2744    2892
    2891    2743    2747    2897    2744    2743    2747    2897
    2747    2743    2744    2892    2742    2743    2747    2898
    2744    2743    2747    2898    2747    2743    2744    2750
    2744    2743    2747    2748    2742    2743    2744    2892
    2742    2743    2747    2897    1936    1938    1940    2100
    2097    1936    1938    1940    1936    1938    1941    1943
    1936    1938    1941    1945    2097    1936    1938    1941
    1940    1938    1941    1943    1940    1938    1941    1945
    1936    1938    1940    1939    1941    1938    1940    2100
    2736    2739    2740    2746    2889    2739    2740    2746
    2889    2739    2740    2742    2739    2740    2742    2741
    2746    2740    2742    2741    1938    1936    1937    2098
    1937    1936    1938    1941    2097    1936    1937    2098
    1937    1936    1938    1940    1947    1942    1944    2102
    1942    1944    1946    2104    2102    1944    1946    2104
    1942    1944    1946    1945    1947    1942    1944    1946
    2742    2743    2747    2748    2743    2747    2748    2749
    2743    2747    2748    2751    2891    2743    2747    2748
    2743    2747    2748    2899    2898    2747    2748    2751
    2897    2747    2748    2751    1941    1938    1940    1939
    2099    1939    1940    1938    2739    2740    2742    2743
    2737    2741    2742    2743    2890    2741    2742    2740
    2890    2741    2742    2743    2746    2740    2742    2743
    2736    2739    2740    2742    1934    1935    1937    1936
    1934    1935    1937    2098    1939    1935    1937    1936
    1938    1936    1937    1935    2097    1936    1937    1935
    1779    1624    1625    1623    1611    1612    1618    1619
    1618    1612    1613    1620    1613    1612    1618    1622
    1613    1612    1618    1619    1611    1612    1613    1620
    1611    1612    1613    1615    1611    1612    1618    1622
    1613    1620    1621    1619    1776    1620    1621    1777
    1613    1620    1621    1777    1619    1618    1622    1778
    1622    1618    1619    1624    1612    1618    1622    1623
    1612    1618    1619    1624    1612    1618    1619    1621
    1619    1618    1622    1623    1612    1618    1622    1778
     520     526     530     531     520     526     527     532
     520     526     527     529     527     526     530     531
     520     526     530     686     530     526     527     532
     527     526     530     686     521     520     526     527
     521     520     526     530     519     520     521     528
     519     520     521     523     519     520     526     530
     519     520     526     527     526     520     521     528
     673     508     509     674     665     504     508     509
     504     508     509     510     504     508     509     675
     673     508     509     675     504     508     509     674
     672     508     509     675     672     508     509     674
     520     521     523     680     520     521     528     529
     528     521     523     680     526     520     521     523
     520     521     528     684     520     521     523     522
     523     521     528     529     523     521     528     684
    1771    1614    1615    1772    1610    1614    1615    1772
    1610    1614    1615    1613     528     521     523     522
     679     522     523     521     517     519     520     526
     517     519     520     521     678     517     519     518
     678     517     519     520     518     519     520     526
     522     518     519     517     518     519     520     521
     522     518     519     520     524     511     512     676
     513     511     512     510     524     511     512     510
     514     510     512     511     515     518     522     679
     515     518     519     520     519     518     522     679
     515     518     522     523     515     518     519     517
     519     518     522     523    1771    1614    1615    1613
    1620    1613    1615    1614     510     514     515     518
     510     514     515     513     513     511     512     676
     512     511     513     516     512     511     513     515
     513     511     524     569     512     511     524     569
     517     516     525     682     517     516     525     681
     517     516     525     683     513     516     525     682
     513     516     525     681     513     516     525     683
    1615    1613    1620    1621    1612    1613    1620    1621
    1612    1613    1620    1776    1612    1613    1615    1614
    1612    1613    1615    1772    1620    1613    1615    1772
    1615    1613    1620    1776    1618    1612    1613    1615
     518     522     523     680     679     522     523     680
     518     522     523     521     509     510     514     515
     509     510     514     677     514     510     512     676
     512     510     514     677     509     510     512     511
     512     510     514     515     509     510     512     676
     677     514     515     513     516     513     515     514
     514     515     518     519     677     514     515     518
     513     515     518     522     513     515     518     519
     514     515     518     522     508     509     510     512
     508     509     510     514     673     508     509     510
     672     508     509     510     674     509     510     514
     674     509     510     512     675     509     510     512
     675     509     510     514     515     513     516     525
     511     513     516     525     513     516     517     678
     525     516     517     678     513     516     517     519
     525     516     517     519     515     513     516     517
     511     513     516     517     524     511     513     515
     524     511     513     516     511     513     515     514
     516     513     515     518     511     513     515     518
     516     517     519     518     516     517     519     520
    1194    1193    1200    1203    1195    1193    1200    1199
    1194    1193    1195    1197    1195    1193    1194    1198
    1194    1193    1195    1365    1200    1193    1195    1365
    1195    1193    1200    1203    1194    1193    1200    1199
    1200    1193    1194    1198    1200    1193    1195    1197
    1193    1195    1197    1196    2317    2315    2316    2475
    2473    2315    2316    2475    2316    2315    2317    2318
    2316    2315    2317    2476    2474    2315    2316    2475
    2474    2315    2317    2476    2473    2315    2317    2476
    2474    2315    2316    2314    2317    2315    2316    2314
    2473    2315    2316    2314    2473    2315    2317    2318
    2474    2315    2317    2318    2315    2317    2318    2477
    2476    2317    2318    2477    2315    2317    2318    2314
    2476    2317    2318    2314    1221    1222    1224    1223
    1221    1222    1226    1385    1226    1222    1224    1383
    1224    1222    1226    1225    1224    1222    1226    1385
    1221    1222    1226    1225    1221    1222    1224    1383
    1226    1222    1224    1223    1195    1197    1221    1380
    1196    1197    1221    1379    1195    1197    1221    1222
    1196    1197    1221    1380    1195    1197    1221    1379
    1196    1197    1221    1222    1197    1221    1222    1224
    1197    1221    1222    1226    1380    1221    1222    1224
    1379    1221    1222    1224    1379    1221    1222    1226
    1380    1221    1222    1226    1193    1195    1197    1221
    1220    1196    1197    1221    1192    1196    1197    1221
    1365    1195    1197    1221    1220    1196    1197    1195
    1365    1195    1197    1196    2318    2314    2316    2315
    1198    1199    1200    1203    1193    1200    1203    1204
    1201    1199    1200    1193    1199    1200    1203    1204
    1193    1200    1203    1367    1199    1200    1203    1367
    1198    1199    1200    1193    2261    2262    2275    2452
    2264    2260    2262    2261    2260    2262    2275    2452
    2263    2261    2262    2260    2266    2261    2262    2260
    2318    2314    2316    2475    2316    2314    2318    2317
    2313    2314    2318    2317    2313    2314    2316    2315
    2313    2314    2318    2477    2316    2314    2318    2477
    2313    2314    2316    2475    1196    1192    1194    1193
    1192    1194    1198    1199    1193    1194    1198    1199
    1200    1193    1194    1192    1195    1193    1194    1192
    2268    2263    2265    2264    2443    2264    2265    2263
    2262    2261    2263    2265    2262    2261    2266    2267
    2262    2261    2266    2445    2266    2261    2262    2275
    2263    2261    2266    2267    2263    2261    2266    2445
    2263    2261    2262    2275    2262    2261    2263    2268
    1200    1203    1204    1202    1200    1203    1204    1206
    1367    1203    1204    1206    2266    2261    2263    2268
    2261    2263    2265    2264    2266    2261    2263    2265
    2261    2263    2265    2444    2268    2263    2265    2444
    2265    2263    2268    2267    2265    2263    2268    2271
    2261    2263    2268    2267    2261    2263    2268    2271
     457     459     502     663     461     459     502     663
     461     459     502     662     457     459     502     501
     457     459     502     662     461     459     502     501
     661     501     502     459    2292    2285    2287    2289
    2285    2287    2289    2288     661     501     506     505
     504     505     506     501     666     505     506     501
     667     505     506     501    1298    1300    1302    1301
    1450    1300    1302    1452    1298    1300    1302    1452
    2305    2309    2310    2468    2467    2309    2310    2468
    2305    2309    2310    2308    1192    1196    1197    1195
    1197    1196    1220    1378    1192    1196    1220    1378
    1384    1225    1226    1222    2292    2295    2296    2294
    2292    2295    2296    2298    2459    2295    2296    2298
    2286    2285    2292    2291    2286    2285    2287    2289
    2287    2285    2286    2290    2287    2285    2292    2291
    2287    2285    2292    2295    2286    2285    2287    2457
    2286    2285    2292    2295    2292    2285    2287    2457
    2292    2285    2286    2290    2298    2299    2303    2463
    2298    2299    2303    2304    2463    2303    2304    2464
    2299    2303    2304    2302    2299    2303    2304    2464
    1165    1184    1186    1185    1165    1184    1186    1361
    1190    1185    1186    1361    1188    1184    1186    1185
    1187    1185    1186    1184    1190    1185    1186    1184
    2311    2306    2307    2465    2308    2306    2307    2305
    2309    2305    2307    2306    2311    2306    2307    2305
    1160    1165    1184    1186    1160    1165    1184    1188
    1186    1184    1188    1189    1186    1184    1188    1362
    1188    1184    1186    1361    2297    2294    2296    2298
    2295    2296    2298    2299    2459    2295    2296    2294
    2294    2296    2298    2299    2297    2294    2296    2295
    2305    2302    2304    2303    2463    2303    2304    2302
    2461    2300    2301    2462    2302    2300    2301    2462
    2301    2300    2302    2304    2301    2300    2302    2305
    1451    1301    1302    1300    1450    1300    1302    1301
    1187    1185    1186    1361    1186    1185    1190    1191
    1187    1185    1190    1191    1186    1185    1187    1189
    2298    2299    2301    2462    2298    2299    2301    2300
    2302    2300    2301    2299    2303    2299    2301    2300
    2461    2300    2301    2299    1191    1192    1196    1197
    1191    1192    1194    1198    1191    1192    1196    1220
    1194    1192    1196    1197    1191    1192    1194    1193
    1196    1192    1194    1198    1194    1192    1196    1220
    2296    2298    2299    2301    2296    2298    2299    2303
    2301    2299    2303    2304    2301    2299    2303    2463
    2303    2299    2301    2462    2300    2302    2305    2307
    2300    2302    2305    2309    2300    2302    2304    2464
    2304    2302    2305    2307    2304    2302    2305    2309
    2461    2300    2302    2305    2461    2300    2302    2304
    2300    2302    2304    2303    2305    2302    2304    2464
    1185    1190    1191    1192    1185    1190    1191    1363
    1185    1190    1191    1364    1190    1191    1192    1194
    1190    1191    1192    1196    1363    1191    1192    1194
    1364    1191    1192    1196    1363    1191    1192    1196
    1364    1191    1192    1194      51      53      61     249
      51      53      61      62      51      53      61     248
      52      53      61     249      52      53      61      62
      52      53      61     248     248      61      62     250
     249      61      62     250      53      61      62     250
      53      61      62      63     249      61      62     251
      53      61      62     251     248      61      62     251
    2302    2305    2307    2465    2307    2305    2309    2467
    2307    2305    2309    2310    2309    2305    2307    2465
    2302    2305    2309    2467    2302    2305    2307    2306
    2302    2305    2309    2310    2290    2291    2292    2295
    2285    2292    2295    2296    2285    2292    2295    2459
    2291    2292    2295    2296    2291    2292    2295    2459
    2293    2291    2292    2285    2290    2291    2292    2285
    1165    1184    1188    1189    1165    1184    1188    1362
    1184    1188    1189    1187    1149    1148    1150    1334
    1149    1148    1150    1151    1149    1148    1150    1335
    1333    1148    1150    1334    1333    1148    1150    1335
    1335    1150    1151    1336    1148    1150    1151    1336
    1334    1150    1151    1336    1333    1148    1150    1151
    1335    1150    1151    1147    1148    1150    1151    1147
    1334    1150    1151    1147    1150    1148    1149    1152
    1150    1148    1149    1147    1144    1145    1153    1340
    1144    1145    1153    1341    1144    1145    1153    1154
    1143    1145    1153    1341    1143    1145    1153    1154
    1143    1145    1153    1340    1145    1153    1154    1342
    1145    1153    1154    1155    1341    1153    1154    1343
    1341    1153    1154    1342    1340    1153    1154    1343
    1340    1153    1154    1342    1145    1153    1154    1343
    1143    1146    1147    1149    1143    1146    1147    1151
    1149    1147    1151    1336    1145    1143    1146    1147
    1141    1143    1145    1144    1141    1143    1146    1147
    1331    1141    1143    1145    1142    1141    1143    1145
    1331    1141    1142    1332    1143    1141    1142    1332
    1142    1141    1143    1146    1331    1141    1143    1146
    1141    1143    1145    1153    1146    1143    1145    1153
    1140    1144    1145    1143    1139    1144    1145    1153
    1140    1144    1145    1153    1146    1143    1145    1144
    1151    1147    1149    1152    1146    1147    1149    1148
    1146    1147    1149    1152    1333    1148    1149    1152
    1333    1148    1149    1147    1151    1147    1149    1148
    1147    1149    1152    1339    1148    1149    1152    1338
    1147    1149    1152    1338    1148    1149    1152    1337
    1148    1149    1152    1339    1147    1149    1152    1337
    1149    1147    1151    1150    1146    1147    1151    1150
    1146    1147    1151    1336    1144    1139    1142    1141
    1143    1141    1142    1139    1331    1141    1142    1139
    1137    1140    1144    1145    1137    1140    1144    1139
    1139    1144    1145    1143    1921    1923    1925    1924
    1928    1921    1923    1925    1155    1159    1160    1165
    1155    1159    1160    1158    1344    1159    1160    1165
    1344    1159    1160    1158    1341    1153    1154    1155
    1340    1153    1154    1155    1153    1154    1155    1157
    1153    1154    1155    1159    1343    1154    1155    1157
    1342    1154    1155    1157    1343    1154    1155    1159
    1342    1154    1155    1159    1156    1158    1160    1159
    1156    1158    1160    1165    1158    1160    1165    1184
    1159    1160    1165    1184    1157    1155    1159    1344
    1154    1155    1157    1156    1154    1155    1159    1160
    1154    1155    1157    1161    1154    1155    1159    1344
    1157    1155    1159    1160    2466    2308    2310    2309
    2467    2309    2310    2308    1923    1921    1928    1927
    1923    1921    1928    1931    1922    1921    1923    2093
    1922    1921    1928    1931    1923    1921    1922    1926
    1922    1921    1928    1927    1922    1921    1923    1925
    1928    1921    1923    2093    1928    1921    1922    1926
    1932    1934    1935    1937    1932    1934    1935    1939
    1937    1935    1939    1940    1939    1935    1937    2098
    1937    1935    1939    2099    1921    1923    1925    1949
    1920    1924    1925    1949    1948    1924    1925    1949
    1948    1924    1925    1923    2093    1923    1925    1949
    2093    1923    1925    1924    1142    1139    1144    1145
    1135    1139    1144    1145    1135    1139    1144    1140
    1144    1139    1142    1332    1135    1139    1142    1141
    1135    1139    1142    1332    1142    1139    1144    1140
    1934    1935    1939    1940    1934    1935    1939    2099
    1935    1939    1940    1938    1935    1939    1940    2100
    2099    1939    1940    2100    2267    2268    2271    2274
    2263    2268    2271    2274    2268    2271    2272    2270
    2268    2271    2272    2447    2274    2271    2272    2447
    2274    2271    2272    2270    1929    1930    1933    2096
    1929    1930    1932    1934    2094    1929    1930    1932
    1929    1930    1932    1931    1932    1930    1933    2096
    1926    1927    1929    1930    1926    1927    1929    2094
    1927    1929    1930    1932    1927    1929    1930    1933
    2094    1929    1930    1933    2272    2271    2274    2449
    2272    2271    2274    2451    2272    2271    2274    2450
    2268    2271    2274    2450    2268    2271    2274    2449
    2268    2271    2274    2451    1928    1931    1932    1930
    1928    1931    1932    1934    2095    1931    1932    1934
    2261    2266    2267    2269    2261    2266    2267    2268
    2269    2267    2268    2271    2268    2267    2269    2270
    2268    2267    2269    2446    2445    2266    2267    2268
    2445    2266    2267    2269    1922    1920    1924    1948
    1919    1920    1924    1948    1924    1920    1922    1926
    1922    1920    1924    1925    1919    1920    1924    1925
    1919    1920    1922    1926    1919    1920    1922    1921
    1281    1280    1283    1284    1283    1280    1281    1285
    1274    1280    1283    1433    1274    1280    1281    1285
    1274    1280    1283    1284    1274    1280    1281    1282
    1281    1280    1283    1433    1933    1930    1932    1934
    1933    1930    1932    1931    1931    1932    1934    1935
    2095    1931    1932    1930    1930    1932    1934    1935
    2266    2267    2268    2271    2267    2268    2271    2272
    2263    2268    2271    2272    2269    2267    2268    2263
    2266    2267    2268    2263    1922    1926    1927    1928
    1922    1926    1927    1929    1929    1927    1928    1931
    1928    1927    1929    1930    1928    1927    1929    2094
    1926    1927    1928    1931    1929    1927    1928    1921
    1927    1928    1931    1932    1926    1927    1928    1921
    1927    1928    1931    2095    1921    1928    1931    1932
    1921    1928    1931    2095    1920    1922    1926    1927
    1924    1920    1922    1921    1928    1921    1922    1920
    1921    1922    1926    1927    1923    1921    1922    1920
    1267    1271    1272    1424    1423    1271    1272    1424
    1267    1271    1272    1274    1277    1273    1274    1272
    1424    1272    1274    1280    1272    1274    1280    1281
    1272    1274    1280    1283    1273    1274    1280    1281
    1273    1274    1280    1283    1424    1272    1274    1273
    1271    1272    1274    1280    1271    1272    1274    1273
    1423    1271    1272    1274    2272    2270    2273    2448
    2269    2270    2272    2271    2269    2270    2272    2447
    2446    2269    2270    2272    2269    2270    2273    2448
    1280    1283    1284    1286    2273    2270    2272    2447
    2273    2270    2272    2271    2266    2267    2269    2270
    2266    2267    2269    2446    2267    2269    2270    2273
    2267    2269    2270    2272    2446    2269    2270    2273
    1266    1267    1271    1272    1273    1266    1267    1271
    1269    1265    1267    1266    1265    1267    1271    1272
    1273    1266    1267    1265    1265    1267    1271    1423
    1268    1266    1267    1265    1266    1267    1271    1423
    1903    1904    1907    1910    1899    1904    1907    1910
    1904    1907    1908    1906    1904    1907    1908    2083
    1910    1907    1908    2083    1910    1907    1908    1906
    1898    1897    1899    1901    1899    1897    1898    1911
    1898    1897    1902    2081    1898    1897    1899    1904
    1899    1897    1902    1903    1899    1897    1902    2081
    1898    1897    1902    1903    1902    1897    1898    1911
    1902    1897    1899    1904    1904    1899    1901    2080
    1897    1899    1904    1903    1897    1899    1904    1907
    1897    1899    1901    1900    1897    1899    1901    2080
    1902    1897    1899    1901    1901    1899    1904    1903
    1901    1899    1904    1907    1902    1903    1904    1907
    1905    1903    1904    1899    1903    1904    1907    1908
    1902    1903    1904    1899    1899    1904    1907    1908
    2079    1900    1901    1899    1904    1899    1901    1900
    1897    1902    1903    1904    1897    1902    1903    1905
    1905    1903    1904    1907    1904    1903    1905    1906
    2081    1902    1903    1904    2081    1902    1903    1905
    1904    1903    1905    2082    1902    1897    1898    1896
    1899    1897    1898    1896    1897    1898    1911    2088
    1896    1898    1911    2088    1900    1896    1898    1897
    1895    1896    1898    1911    1898    1896    1900    1901
    1895    1896    1898    1897    1898    1896    1900    2079
    1900    1896    1898    1911    1895    1896    1900    1901
    1895    1896    1900    2079    1896    1900    1901    2080
    2079    1900    1901    2080    1896    1900    1901    1899
    1909    1906    1908    2083    1909    1906    1908    1907
      27      26      39     234      21      26      39     234
      21      26      39     236      27      26      39     236
      21      26      39     235      27      26      39     235
      42      41      46     238      42      41      43      45
      42      41      43      47      43      41      42     237
      43      41      46     238      35      40      42     237
      35      40      42      41      46      41      42     237
      46      41      42      40      44      40      42      41
      43      41      42      40      46      41      43      47
      41      43      47      50      41      43      47      52
      41      43      45      48      47      43      45      48
      41      43      45      44      46      41      43      45
      45      43      47      50      45      43      47      52
    1884    1894    1895    2077    1884    1894    1895    1896
    1884    1894    1895    2078    1894    1895    1896    1900
    1894    1895    1896    1898    2078    1895    1896    1898
    2077    1895    1896    1898    2078    1895    1896    1900
    2077    1895    1896    1900      50      47      52      53
      52      47      50     240      43      47      52      53
      43      47      50      49      43      47      50     240
      43      47      52      48      50      47      52      48
    1369    1208    1209    1370    1210    1208    1209    1370
    1209    1208    1210    1213    1209    1208    1210    1212
    1206    1207    1209    1370    1206    1207    1209    1208
    1210    1208    1209    1207    1211    1207    1209    1208
    1369    1208    1209    1207    1902    1903    1905    1906
    1902    1903    1905    2082    1903    1905    1906    1909
    1903    1905    1906    1908    2082    1905    1906    1909
    2082    1905    1906    1908    1908    1906    1909    2084
    1905    1906    1909    2084    1905    1906    1908    1907
    1905    1906    1908    2083      51      49      50      47
     239      49      50      47      52      47      50      49
    1904    1907    1910    2086    1908    1907    1910    2086
    1908    1907    1910    2085    1908    1907    1910    2087
    1904    1907    1910    2085    1904    1907    1910    2087
      26      27      35      40      29      27      35      40
      26      27      29      28    1369    1208    1210    1212
    1212    1210    1213    1215    1212    1210    1213    1217
    1208    1210    1212    1211    1213    1210    1212    1372
    1208    1210    1213    1215    1208    1210    1213    1217
    1208    1210    1212    1372    1369    1208    1210    1213
      27      35      40      42      27      35      40      44
      44      40      42     237      42      40      44      45
    2307    2306    2311    2469    2307    2306    2308    2466
    2307    2306    2308    2310    2308    2306    2307    2465
    2308    2306    2311    2469      93      95      97     135
      92      96      97     135     138      95      97     135
     270      96      97      95     270      96      97     135
      64      65      69     254      63      65      69     254
      63      65      69     253      63      65      69     255
      64      65      69     253      64      65      69     255
      78      76      80      81      78      76      80     259
      75      76      78      91      80      76      78      91
      75      76      80      81      75      76      78      77
      75      76      80     259     259      80      81      79
      84      79      81      80      54      51      53      61
      49      51      53      61      47      52      53      61
      48      52      53      61      48      52      53      51
      54      51      53      52      63      67      68      73
      63      67      68      66     252      67      68      66
     252      67      68      73      45      44      70      71
      45      44      70      72      40      44      70      72
      40      44      70      71      71      70      72     256
      44      70      72     256      47      43      45      44
      44      45      48      52      43      45      48      52
      76      80      81     260      76      80      81      79
     259      80      81     260      64      74      75      76
      64      74      75     258      64      74      75     257
      74      75      76      80      74      75      76      78
     257      75      76      80     257      75      76      78
     258      75      76      80     258      75      76      78
      45      48      52      47      45      48      52      53
      47      52      53      51      65      64      74      75
      65      64      66      68      66      64      74      75
      74      64      66      68      35      40      44      70
      35      40      44      45      42      40      44      70
      40      44      45      48      40      44      45      43
      70      44      45      48      70      44      45      43
      62      63      67      68      65      63      67     252
      62      63      65      69      65      63      67      68
      62      63      65      64      62      63      67     252
      64      66      68      73      64      66      68      67
      67      68      73      92      66      68      73      92
    2789    2604    2606    2790    2605    2604    2606    2790
    2605    2604    2606    2607    2605    2604    2606    2791
    2789    2604    2606    2791    2790    2606    2607    2792
    2789    2604    2606    2607    2791    2606    2607    2792
    2604    2606    2607    2792    2791    2606    2607    2603
    2604    2606    2607    2603    2790    2606    2607    2603
      73      92      96      97      73      92      96     270
      92      96      97      95      67      63      65      69
      66      64      65      69      66      64      65      63
      67      63      65      64      74      64      65      69
      74      64      65      63      61      62      63      65
     248      61      62      63     249      61      62      63
      61      62      63      67     251      62      63      67
     251      62      63      65     250      62      63      67
     250      62      63      65      79      77      78      91
      78      77      82      83      82      77      78      91
      78      77      79      81      79      77      82      83
      79      77      82     261      78      77      82     261
      78      77      79      84    1949    1950    1952    1951
    1949    1950    1954    2113    1952    1950    1954    2113
    1949    1950    1954    1953    1949    1950    1952    2111
    1952    1950    1954    1953    1954    1950    1952    2111
    2112    1953    1954    2113    1951    1953    1954    2113
    1951    1953    1954    1950    2112    1953    1954    1950
    1954    1950    1952    1951    1952    1951    1953    1954
    1953    1951    1952    2111    2109    1951    1952    2111
    2110    1951    1952    2111    1952    1951    1953    2112
    2109    1951    1953    2112    2110    1951    1953    2112
    2110    1951    1952    1950    1953    1951    1952    1950
    2109    1951    1952    1950    2109    1951    1953    1954
    2110    1951    1953    1954      80      76      78      77
      79      77      78      76      82      77      78      76
      76      78      91     268      77      78      91     268
      82      77      79      84      84      79      81     260
      77      79      84      83      77      79      84      87
      82      77      79      81      77      79      81      80
      77      79      81     260      81      79      84      83
      81      79      84      87    1156    1157    1161    1346
    1155    1157    1161    1345    1156    1157    1161    1345
    1156    1157    1161    1347    1155    1157    1161    1347
    1155    1157    1161    1346    1920    1924    1948    2106
    1925    1924    1948    2106    1920    1924    1925    1923
    2311    2306    2308    2466    2466    2308    2310    2468
    2306    2308    2310    2468    2311    2306    2308    2310
    2306    2308    2310    2309    1159    1155    1157    1161
    1158    1156    1157    1161    1166    1156    1157    1155
    1158    1156    1157    1155    1166    1156    1157    1161
    1159    1155    1157    1156    1924    1925    1949    2108
    1923    1925    1949    2107    1924    1925    1949    2107
    1923    1925    1949    1950    1924    1925    1949    1950
    1923    1925    1949    2108    1925    1949    1950    1952
    1925    1949    1950    1954    2107    1949    1950    1954
    2107    1949    1950    1952    2108    1949    1950    1952
    2108    1949    1950    1954    1157    1156    1166    1167
    1157    1156    1158    1160    1158    1156    1166    1167
    1166    1156    1158    1160      77      82      83      84
      77      82      83      85      84      83      85      86
      84      83      85     262     261      82      83      85
      85      83      84      87     261      82      83      84
    1441    1291    1292    1443    1442    1291    1292    1443
    1291    1292    1293    1444    1291    1292    1293    1294
    1443    1292    1295    1448    1441    1291    1292    1293
    1291    1292    1295    1448    1443    1292    1293    1445
    1442    1291    1292    1293    1291    1292    1293    1445
    1293    1292    1295    1448    1443    1292    1293    1444
    1286    1287    1291    1292    1287    1291    1292    1293
    1287    1291    1292    1295    1435    1287    1291    1292
    1287    1291    1292    1443    1442    1291    1292    1295
    1441    1291    1292    1295      82      83      84      87
      82      83      84      79      79      84      87      88
      85      83      84      79      83      84      87      88
    1295    1292    1293    1444    1295    1292    1293    1445
    1292    1293    1294    1446    1444    1293    1294    1447
    1443    1292    1293    1294    1295    1292    1293    1294
    1445    1293    1294    1446    1292    1293    1294    1447
    1444    1293    1294    1446    1445    1293    1294    1447
    1883    1887    1888    1893    1883    1887    1888    1886
    2072    1887    1888    1893    2072    1887    1888    1886
    1219    1214    1215    1373    1217    1213    1215    1214
    1219    1214    1215    1213    1216    1214    1215    1213
    1444    1293    1294    1288    1445    1293    1294    1288
    1436    1288    1294    1293    1292    1293    1294    1288
    1282    1281    1285    1286    1285    1281    1282    1432
    1280    1281    1282    1432    1282    1281    1285    1434
    1283    1280    1281    1282    1280    1281    1285    1434
    1280    1281    1285    1286    2830    2672    2674    2673
    2831    2673    2674    2672    1885    1884    1894    1895
    1886    1884    1894    1895    1885    1884    1886    1888
    1894    1884    1886    1888    2666    2669    2671    2670
    2666    2669    2673    2674    2671    2669    2673    2831
    2673    2669    2671    2829    2666    2669    2671    2829
    2671    2669    2673    2674    2666    2669    2673    2831
    1286    1287    1288    1294    1286    1287    1288    1289
    1287    1288    1289    1290    1289    1288    1294    1446
    1287    1288    1294    1293    1436    1288    1289    1438
    1435    1287    1288    1294    1289    1288    1294    1447
    1435    1287    1288    1289    1436    1288    1289    1437
    1287    1288    1289    1438    1291    1287    1288    1289
    1436    1288    1294    1446    1287    1288    1294    1447
    1287    1288    1289    1437    1294    1288    1289    1437
    1289    1288    1294    1293    1287    1288    1294    1446
    1436    1288    1294    1447    1294    1288    1289    1438
    1294    1288    1289    1290    1213    1210    1212    1211
    1371    1211    1212    1210    1286    1284    1290    1439
    1283    1284    1290    1440    1283    1284    1290    1289
    1286    1284    1290    1289    1286    1284    1290    1440
    1283    1284    1290    1439    1438    1289    1290    1284
    1437    1289    1290    1284    1215    1213    1217    1375
    1217    1213    1215    1373    1210    1213    1217    1375
    1210    1213    1215    1373    1215    1213    1217    1218
    1210    1213    1217    1218    1210    1213    1215    1214
    1219    1214    1216    1374    1214    1216    1218    1217
    1214    1216    1218    1376    1219    1214    1216    1218
    1374    1216    1218    1376    1438    1289    1290    1439
    1437    1289    1290    1440    1436    1288    1289    1290
    1288    1289    1290    1440    1288    1289    1290    1439
    1438    1289    1290    1440    1437    1289    1290    1439
    1288    1289    1290    1284    1884    1886    1888    1887
    1884    1886    1888    1893    1887    1888    1893    1912
    1886    1888    1893    1912    2675    2670    2672    2830
    2675    2670    2672    2674    2670    2672    2674    2673
    2830    2672    2674    2832    2670    2672    2674    2832
    1281    1285    1286    1284    1285    1286    1287    1291
    1285    1286    1287    1288    1284    1286    1287    1435
    1284    1286    1287    1291    1285    1286    1287    1435
    1284    1286    1287    1288    1286    1287    1291    1442
    1288    1287    1291    1441    1286    1287    1288    1436
    1286    1287    1291    1441    1435    1287    1288    1436
    1435    1287    1291    1441    1288    1287    1291    1292
    1291    1287    1288    1436    1435    1287    1291    1442
    1291    1287    1288    1294    1288    1287    1291    1442
    1914    1913    1918    1919    1914    1913    1915    1917
    1915    1913    1914    2089    1915    1913    1918    1919
    1893    1912    1914    1913    1893    1912    1914    2089
    1918    1913    1914    2089    1918    1913    1914    1912
    1915    1913    1914    1912    1916    1912    1914    1913
    1215    1214    1216    1218    1216    1214    1215    1373
    1216    1214    1219    1377    1215    1214    1216    1374
    1215    1214    1219    1377    2831    2673    2674    2832
    2669    2673    2674    2832    2669    2673    2674    2672
    1280    1283    1284    1290    1433    1283    1284    1290
    1433    1283    1284    1286    1283    1284    1286    1285
    1290    1284    1286    1285    1213    1217    1218    1216
    1375    1217    1218    1376    1213    1217    1218    1376
    1374    1216    1218    1217    1375    1217    1218    1216
    1283    1284    1286    1287    1281    1285    1286    1287
    1290    1284    1286    1287    1434    1285    1286    1284
    1434    1285    1286    1287      26      21      23      28
      22      21      23      28      22      21      23      25
      22      21      26      27      26      21      22      38
      23      21      22      38      23      21      26      27
    3039    3034    3035    3193    3039    3034    3035    3033
    3036    3034    3035    3033    3037    3033    3035    3034
    3035    3033    3037    3038    3037    3033    3035    3193
    3030    3033    3037    3038    3035    3033    3037    3195
    3030    3033    3035    3034    3030    3033    3037    3195
    3030    3033    3035    3193    3189    3028    3030    3032
    3033    3030    3032    3192    3032    3030    3033    3035
    3028    3030    3032    3031    3189    3028    3030    3033
    3028    3030    3033    3035    3028    3030    3033    3037
    3028    3030    3032    3192    3032    3030    3033    3037
    3189    3028    3029    3190    3029    3028    3030    3032
    3030    3028    3029    3190    3029    3028    3030    3033
    3026    3027    3029    3028    3026    3027    3029    3190
    3031    3027    3029    3028    3030    3028    3029    3027
    3189    3028    3029    3027      20      24      25      23
     223      24      25     224      20      24      25     224
      24      20      22      21      23      21      22      20
      21      22      38     233      20      22      38     233
      26      21      22      20      19      20      24      25
      19      20      22      21      24      20      22      38
      19      20      24     223      22      20      24     223
      19      20      22      38      22      20      24      25
    3036    3034    3035    3193    3035    3034    3036    3038
    3036    3034    3039    3197    3035    3034    3036    3194
    3035    3034    3039    3197      17       7       8     216
       7       8      10       9       7       8      10      11
      17       7       8      10    3033    3030    3032    3031
    3191    3031    3032    3030     212     211     213     364
     361     211     213     364     212     211     213     206
      21      23      25      24      21      23      28      29
      28      23      25     224      21      23      25     224
      25      23      28      29      26      21      23      25
    3033    3037    3038    3036    3195    3037    3038    3196
    3033    3037    3038    3196      28      23      25      24
     223      24      25      23      22      21      26      39
      23      21      26      39      21      26      27      29
      21      26      27      35      39      26      27      29
      39      26      27      35      12      11      19     221
      12      11      19      20      10      11      19     221
      10      11      19      20      10      11      19     222
      12      11      19     222      11      19      20      22
      11      19      20      24     221      19      20      24
     222      19      20      24     222      19      20      22
     221      19      20      22    3039    3034    3036    3194
    3194    3036    3038    3196    3034    3036    3038    3037
    3039    3034    3036    3038    3034    3036    3038    3196
    3026    3027    3031    3032    3026    3027    3031    3191
    3027    3031    3032    3192    3027    3031    3032    3030
    3191    3031    3032    3192    3194    3036    3038    3037
    3195    3037    3038    3036    1883    1885    1889    2074
    1883    1885    1889    2073    1883    1885    1889    2075
    1884    1885    1889    2073    1884    1885    1889    2075
    1884    1885    1889    2074    3024    3026    3027    3029
    3024    3026    3027    3031    3031    3027    3029    3190
    3029    3027    3031    3032    3029    3027    3031    3191
     208     206     213     211     207     206     213     211
     361     211     213     206       8      10      11      12
      13       9      10      11      13       9      10       8
     216       8      10       9       9      10      11      12
     216       8      10      11     145     146     148     147
     150     146     148     312     145     146     150     313
     148     146     150     313     145     146     148     312
     145     146     150     151     148     146     150     151
    2612    2614    2616    2615    2612    2614    2616    2621
    2614    2616    2621    2640    2615    2616    2621    2640
     303     141     142     137     302     141     142     137
     140     141     142     137     297     137     142     141
    2642    2641    2643    2645    2643    2641    2642    2817
    2642    2641    2646    2647    2643    2641    2646    2647
     135     136     139     140     136     139     140     301
     136     139     143     306     300     139     143     306
     136     139     143     307     296     136     139     143
     300     139     140     301     143     139     140     301
     296     136     139     140     136     139     140     144
     140     139     143     307     136     139     140     141
     143     139     140     144     300     139     143     307
     140     139     143     306     140     139     143      31
     136     139     143      31      29      28      30     226
      23      28      30     226      29      28      30     225
      29      28      30      31      23      28      30     225
      23      28      30      31      28      30      31     227
      27      29      33     228      27      29      33      32
      28      29      33     228      28      29      33      32
      28      29      33     229      27      29      33     229
      31      32      33     228      31      32      33     229
      34      32      33     229      34      32      33     228
      31      32      33      29      34      32      33      29
      30      31     143     139      32      31     143     139
     227      31     143     139     300     139     143      31
     144     145     146     148     144     145     146     150
     308     144     145     146     309     144     145     146
     310     145     146     150     311     145     146     150
     311     145     146     148     310     145     146     148
     295     135     136     296      97     135     136     137
     294     135     136     296      97     135     136     139
     139     136     137     142     295     135     136     139
     296     136     139     300     135     136     137     138
     137     136     139     143     135     136     137     142
     295     135     136     137     135     136     139     300
     296     136     137     297     137     136     139     140
     139     136     137     297     294     135     136     137
     135     136     139     143     137     136     139     300
     135     136     137     297     294     135     136     139
     139     136     137     138      96      97     135     294
      95      97     135     136      96      97     135     136
      95      97     135     295      96      97     135     295
      95      97     135     294      97     135     136     296
      28      30      31      32     225      30      31     227
      28      30      31     143     226      30      31     227
      32      31     143     306     227      31     143     306
     226      30      31      32      30      31     143     307
     225      30      31     143      32      31     143     307
     227      31     143     307     225      30      31      32
      30      31     143     306      30      31      32      33
     226      30      31     143      30      31      32      34
     227      31      32      34     227      31      32      33
     143      31      32      34     143      31      32      33
    2616    2621    2640    2642    2616    2621    2640    2644
    2642    2640    2644    2645    2644    2640    2642    2817
    2642    2640    2644    2818     302     141     142     305
     303     141     142     305     140     141     142     305
     302     141     142     304     303     141     142     304
     301     140     141     142     140     141     142     304
     296     136     137     138     138     137     142     304
     142     137     138     299     136     137     138     298
     136     137     142     141     297     137     138     298
     142     137     138     298     136     137     138     299
     297     137     138     299     138     137     142     141
     136     137     142     305     297     137     142     305
     136     137     142     304     138     137     142     305
     297     137     142     304     296     136     137     142
     136     137     138      95     142     137     138      95
     143     139     140     141     301     140     141     303
     301     140     144     308     139     140     141     142
     300     139     140     144     139     140     144     308
     141     140     144     308     300     139     140     141
     139     140     144     309     144     140     141     303
     139     140     141     303     144     140     141     302
     139     140     141     302     139     140     144     145
     141     140     144     145     301     140     141     302
     301     140     144     309     141     140     144     309
     144     140     141     142     301     140     144     145
     309     144     145     310     140     144     145     311
     140     144     145     146     308     144     145     311
     309     144     145     311     140     144     145     310
     308     144     145     310      26      27      29      33
      23      28      29      33      35      27      29      33
      35      27      29      28      21      23      28      30
      25      23      28      30      30      28      29      33
      23      28      29      27      30      28      29      27
     146     150     151     154     146     150     151     149
    2621    2640    2642    2641    2621    2640    2642    2817
    2646    2641    2642    2817    2644    2640    2642    2641
    2643    2641    2642    2640    2646    2641    2642    2640
    2650    2649    2651    2821    2650    2649    2656    2659
    2651    2649    2650    2654    2651    2649    2656    2655
    2650    2649    2656    2655    2656    2649    2651    2821
    2650    2649    2651    2653    2651    2649    2656    2659
    2656    2649    2650    2654    2648    2652    2653    2651
    2648    2652    2676    2834    2653    2652    2676    2834
    2649    2651    2653    2652    2656    2649    2651    2653
    2649    2651    2653    2677    2676    2652    2653    2677
    2648    2652    2653    2677    2676    2652    2653    2651
    2821    2651    2653    2652    2821    2651    2653    2677
    2652    2648    2650    2654    2647    2648    2650    2654
    2647    2648    2652    2653    2647    2648    2650    2649
    2650    2648    2652    2653    2647    2648    2652    2676
    2650    2648    2652    2676    2656    2649    2650    2648
    2651    2649    2650    2648    2648    2650    2654    2655
    2652    2648    2650    2649    2649    2650    2654    2655
    2654    2655    2656    2659    2649    2656    2659    2823
    2657    2655    2656    2649    2654    2655    2656    2649
    2649    2656    2659    2660    2655    2656    2659    2660
    2655    2656    2659    2823    2650    2654    2655    2657
    2650    2654    2655    2656    2656    2655    2657    2658
    2656    2655    2657    2822    2657    2655    2656    2659
    2656    2659    2660    2658    2656    2659    2660    2662
    2823    2659    2660    2662     274     109     110     112
     109     110     112     111     109     110     112     114
     109     110     113     276     112     110     113     276
    2822    2657    2658    2660    2660    2658    2661    2824
    2657    2658    2660    2662    2657    2658    2660    2659
    2657    2658    2661    2824    2654    2655    2657    2822
    2654    2655    2657    2658    2655    2657    2658    2661
    2655    2657    2658    2660    2822    2657    2658    2661
    2641    2643    2686    2847    2641    2643    2686    2846
    2645    2643    2686    2685    2645    2643    2686    2847
    2645    2643    2686    2846    2641    2643    2686    2685
    2845    2685    2686    2643     106     107     109     110
     106     107     109     274     107     109     110     112
     107     109     110     113     274     109     110     113
    2641    2646    2647    2819    2641    2646    2647    2820
    2641    2646    2647    2648    2646    2647    2648    2650
    2646    2647    2648    2652    2820    2647    2648    2650
    2819    2647    2648    2652    2819    2647    2648    2650
    2820    2647    2648    2652    2652    2653    2677    2678
    2652    2653    2677    2835    2651    2653    2677    2836
    2652    2653    2677    2836    2651    2653    2677    2835
    2651    2653    2677    2678    2653    2677    2678    2680
    2653    2677    2678    2682    2835    2677    2678    2680
    2836    2677    2678    2682    2835    2677    2678    2682
    2836    2677    2678    2680    2661    2658    2660    2662
    2658    2660    2662    2663    2661    2658    2660    2659
    2823    2659    2660    2658    2659    2660    2662    2663
    2677    2678    2682    2841    2680    2678    2682    2681
    2677    2678    2680    2679    2680    2678    2682    2841
    2677    2678    2680    2839    2682    2678    2680    2839
    2677    2678    2682    2681    2642    2641    2643    2686
    2646    2641    2643    2686    2641    2643    2645    2644
    2646    2641    2643    2645    2686    2643    2645    2644
    2662    2663    2667    2668    2662    2663    2667    2827
    2663    2667    2668    2666    2663    2667    2668    2828
    2827    2667    2668    2828    2675    2670    2671    2829
    2673    2669    2671    2670    2672    2670    2671    2669
    2675    2670    2671    2669     540     542     548     700
     540     542     548     702     541     542     548     700
     541     542     548     702     541     542     548     701
     540     542     548     701    2668    2666    2669    2671
    2668    2666    2669    2673    2669    2666    2668    2828
    2664    2666    2669    2671    2664    2666    2669    2673
    2664    2666    2668    2667    2825    2664    2666    2668
    2664    2666    2668    2828    2825    2664    2666    2669
    2660    2662    2663    2665    2660    2662    2663    2667
    2667    2663    2665    2826    2665    2663    2667    2668
    2665    2663    2667    2827     554     549     551     703
     545     549     554     704     545     549     551     703
     545     549     554     553     551     549     554     704
     545     549     551     550     551     549     554     553
    2827    2667    2668    2666    2669    2666    2668    2667
    3483    3482    3489    3487    3484    3482    3489    3487
    3637    3487    3489    3482     816     815     818     993
     812     815     818     994     816     815     818     995
     812     815     818     993     816     815     818     994
     812     815     818     995    3482    3483    3488    3639
    3481    3483    3488    3487    3482    3483    3488    3638
    3481    3483    3488    3638    3482    3483    3488    3487
    3481    3483    3488    3639    3489    3487    3488    3638
    3489    3487    3488    3639    3637    3487    3488    3639
    3637    3487    3488    3638    3489    3487    3488    3483
    3637    3487    3488    3483    2662    2663    2665    2664
    2662    2663    2665    2826    2666    2664    2665    2663
    2667    2663    2665    2664    2825    2664    2665    2663
     557     553     554     549     552     553     554     549
     540     550     568     721     540     550     551     549
     551     550     568     721     540     550     551     703
    2665    2664    2666    2668    2825    2664    2665    2826
    2665    2664    2666    2669    2666    2664    2665    2826
    2068    1881    1882    1883    2069    1881    1882    1883
    1881    1882    1883    1885    1881    1882    1883    1887
    2071    1882    1883    1885    2070    1882    1883    1887
    2070    1882    1883    1885    2071    1882    1883    1887
     568     550     551     703     568     550     551     549
     554     549     551     550    1882    1883    1887    1888
    1882    1883    1885    1889    1882    1883    1885    1884
    1885    1883    1887    1888    1882    1883    1887    2072
    1885    1883    1887    2072    3488    3487    3489    3640
    3637    3487    3489    3640    3488    3487    3489    3482
     811     812     815     818     807     812     815     818
     812     815     816     814     818     815     816     991
     812     815     816     991     818     815     816     814
    1887    1883    1885    1889    1886    1884    1885    1889
    1894    1884    1885    1889    1894    1884    1885    1883
    1887    1883    1885    1884    1886    1884    1885    1883
    3017    3016    3040    3198    3012    3016    3040    3198
    3012    3016    3017    3015    3020    3013    3015    3017
    3013    3015    3017    3016    3016    3017    3041    3200
    3015    3017    3041    3199    3015    3017    3041    3042
    3016    3017    3041    3042    3016    3017    3041    3199
    3015    3017    3041    3200    3017    3041    3042    3044
    3017    3041    3042    3046    3199    3041    3042    3044
    3200    3041    3042    3044    3199    3041    3042    3046
    3200    3041    3042    3046    3041    3042    3046    3045
    3044    3042    3046    3045    3046    3042    3044    3203
    3041    3042    3044    3043    3041    3042    3046    3205
    3044    3042    3046    3205    3041    3042    3044    3203
    3013    3015    3017    3041    3012    3016    3017    3041
    3040    3016    3017    3041    3185    3015    3017    3041
    3040    3016    3017    3015    3185    3015    3017    3016
    3020    3013    3015    3185    3015    3013    3020    3019
    3015    3013    3020    3023    3014    3013    3020    3019
    3015    3013    3014    3018    3014    3013    3020    3023
    3014    3013    3015    3017    3014    3013    3015    3185
    3020    3013    3014    3018    3046    3042    3044    3043
    3204    3045    3046    3042    3204    3045    3046    3205
    3043    3045    3046    3205    3043    3045    3046    3042
       7       2       4       9       3       2       7      17
       3       2       7       8       3       2       4       9
       4       2       3      18       3       2       4       6
       7       2       3      18       4       2       7      17
       4       2       7       8    2230    2225    2227    2231
    2230    2225    2227    2229    2231    2227    2229    2232
    2225    2227    2229    2228    2225    2227    2231    2234
    2225    2227    2231    2236    2225    2227    2229    2232
    2229    2227    2231    2234    2229    2227    2231    2236
       7       2       3       1       4       2       3       1
       5       1       3       2       2       3      18     220
     214       1       3       2       1       3      18     220
       3       1       5     215     214       1       5     215
       3       1       5       6       5       1       3      18
     214       1       3      18    3202    3043    3045    3204
    3044    3043    3045    3204    3201    3043    3044    3203
    3201    3043    3045    3204    3044    3043    3045    3046
    3202    3043    3044    3203    3045    3043    3044    3203
    3045    3043    3044    3042    3202    3043    3044    3042
    3201    3043    3044    3042    3202    3043    3045    3046
    3201    3043    3045    3046    2227    2231    2236    2232
    2227    2231    2234    2233    2227    2231    2234    2424
    2236    2231    2234    2424    2234    2231    2236    2237
    2227    2231    2236    2237    2234    2231    2236    2232
    3014    3012    3016    3017    3011    3012    3016    3040
    3011    3012    3016    3017    3011    3012    3014    3018
    3014    3012    3016    3040    3011    3012    3014    3013
    3016    3012    3014    3018    3018    3019    3020    3023
    3019    3020    3023    3187    3013    3020    3023    3024
    3021    3019    3020    3013    3013    3020    3023    3187
    3019    3020    3023    3024    3018    3019    3020    3013
    3012    3014    3018    3019    3020    3013    3014    3012
    3015    3013    3014    3012    3016    3012    3014    3013
    3013    3014    3018    3019       2       7       8     216
       8       7      17     219       2       7       8      10
       2       7      17     219    2241    2240    2242    2427
    2425    2240    2242    2427    2241    2240    2242    2426
    2241    2240    2242    2243    2425    2240    2242    2426
    2425    2240    2242    2243    2427    2242    2243    2428
    2240    2242    2243    2428    2426    2242    2243    2428
    2427    2242    2243    2239    2240    2242    2243    2239
    2426    2242    2243    2239    2227    2225    2226    2421
    2226    2225    2230    2422    2226    2225    2227    2229
    2226    2225    2227    2231    2227    2225    2230    2422
    2238    2239    2243    2428    2241    2239    2243    2242
    2238    2239    2243    2242    3020    3023    3024    3026
    3020    3023    3024    3022    3187    3023    3024    3026
    2236    2231    2234    2233    2235    2233    2234    2231
    2423    2233    2234    2231    2229    2232    2236    2231
    2229    2232    2236    2237    2231    2236    2237    2235
     358     208     210     209     359     209     210     208
     174     176     178     177     174     176     186     187
     178     176     186     204     178     176     186     187
     181     174     176     178     174     176     186     204
     181     185     190     189     181     185     187     186
     187     185     190     340     181     185     190     340
     181     185     187     339     187     185     190     189
     190     185     187     339     173     175     179     331
     176     174     175     173     173     175     179     180
     174     175     179     180     181     174     175     179
     177     173     175     174     174     175     179     331
     181     174     175     173     148     147     149     152
     148     147     149     151     149     147     160     205
     148     147     160     205     149     147     148     312
     207     206     213     364     208     206     213     364
     207     206     208     358     213     206     208     358
     207     206     208     210     213     206     207     205
     213     206     208     210     206     208     210     360
     358     208     210     360     206     208     210     209
     204     186     187     339     204     186     187     185
     190     185     187     186     151     154     158     315
     155     154     158     159     151     154     158     159
     151     154     155     156     155     154     158     315
     151     154     155     153     160     147     148     312
     150     146     148     147     160     147     148     146
     149     147     148     146     313     150     151     154
     149     151     154     155     150     151     154     158
     313     150     151     149     150     151     154     155
     149     151     154     158     152     149     151     150
     187     186     204     357     176     186     187     185
     176     186     204     357     176     186     187     339
     209     205     207     212     160     205     207     206
     160     205     207     212     208     206     207     212
     213     206     207     212     209     205     207     206
     208     206     207     205     176     174     181     185
     175     174     181     185     175     174     181     182
     181     174     176     186     175     174     176     178
     176     174     175     179     175     174     176     186
     176     174     181     182     149     152     161     319
     149     152     161     318     153     152     161     317
     153     152     161     319     149     152     161     317
     153     152     161     318     147     149     152     153
     151     149     152     153     147     149     151     154
     160     147     149     151     160     147     149     152
     147     149     151     150     152     149     151     154
     205     207     212     211     206     207     212     363
     206     207     212     362     205     207     212     363
     205     207     212     362     206     207     212     211
     213     211     212     363     361     211     212     363
     213     211     212     362     361     211     212     362
     361     211     212     207     213     211     212     207
     151     149     152     161     147     149     152     161
     149     152     153     314     161     152     153     314
     149     152     153     155     161     152     153     155
    2990    2989    2994    2995    2994    2989    2990    3003
    2990    2989    2991    2993    2990    2989    2994    3173
    2990    2989    2991    2996    2991    2989    2994    2995
    2991    2989    2994    3173    2991    2989    2990    3003
     193     189     190     185     188     189     190     185
     174     181     185     190     182     181     185     190
     174     181     185     187     185     181     182     188
     174     181     182     180     182     181     185     187
     174     181     182     188     147     160     205     207
     147     160     205     209     207     205     209     210
     207     205     209     359     160     205     209     210
     160     205     209     359     205     209     210     360
     359     209     210     360     205     209     210     208
    2736    2737    2738    2733    2741    2737    2738    2733
    2728    2730    2736    2737    2728    2730    2736    2739
    2733    2729    2730    2728    2729    2730    2736    2737
    2729    2730    2736    2739    2880    2728    2730    2736
    2880    2728    2730    2729    2735    2733    2738    2888
    2738    2733    2735    2887    2729    2733    2738    2737
    2729    2733    2735    2887    2735    2733    2738    2737
    2729    2733    2735    2734    2729    2733    2738    2888
    2752    2734    2735    2887    2752    2734    2735    2733
    2738    2733    2735    2734    3001    2998    3000    3175
    3001    2998    3000    2999    2997    2998    3000    2999
    2997    2998    3000    3175    2997    2998    3001    3176
    3174    2997    2998    3000    3000    2998    3001    3176
    2730    2729    2733    2735    2722    2729    2730    2728
    2722    2729    2733    2735    2733    2729    2730    2736
    2722    2729    2730    2736    2730    2729    2733    2738
    2722    2729    2733    2738    2724    2734    2752    2905
    2724    2734    2735    2887    2724    2734    2735    2733
    2735    2734    2752    2905    2738    2737    2741    2890
    2738    2737    2741    2742    2736    2737    2741    2742
    2736    2737    2738    2888    2739    2736    2737    2738
    2736    2737    2741    2890    2741    2737    2738    2888
     176     178     184     337     177     178     184     336
     177     178     184     338     176     178     184     336
     176     178     184     338     177     178     184     337
     175     173     177     183     173     177     178     176
     183     177     178     184     183     177     178     176
    2737    2741    2742    2740    2730    2736    2739    2889
    2737    2736    2739    2889    2730    2736    2739    2740
    2739    2736    2737    2741    2737    2736    2739    2740
    2730    2736    2737    2741    2730    2736    2737    2738
    2879    2727    2728    2730    2727    2728    2730    2736
    2727    2728    2730    2729     172     173     175     179
     172     173     175     174     172     173     177     183
     172     173     177     178     177     173     175     179
     175     173     177     178     174     176     178     184
     173     177     178     184     186     176     178     184
     186     176     178     177    2991    2996    2999    3002
    2995    2996    2999    3002    2996    2999    3000    2998
    3002    2999    3000    3175    2996    2999    3000    3175
    3002    2999    3000    2998    2994    2995    2996    2999
    2991    2996    2999    3000    2995    2996    2999    3000
    2997    2995    2996    2991    2994    2995    2996    2991
    2996    2999    3002    3178    2996    2999    3002    3177
    2996    2999    3002    3179    3000    2999    3002    3179
    3000    2999    3002    3178    3000    2999    3002    3177
    2989    2994    2995    2996    2989    2994    2995    2997
    3173    2994    2995    2996    2997    2995    2996    2999
    2996    2995    2997    2998    2996    2995    2997    3174
    3173    2994    2995    2997    2994    2995    2997    2998
    2994    2995    2997    3174    2995    2997    2998    3001
    2995    2997    2998    3000    3174    2997    2998    3001
    2724    2722    2723    2727    2723    2722    2724    2734
    2723    2722    2724    2726    2724    2722    2729    2733
    2723    2722    2729    2730    2724    2722    2729    2730
    2729    2722    2724    2734    2723    2722    2729    2733
    2722    2724    2734    2735    2726    2724    2734    2735
    2729    2722    2724    2726    2722    2724    2726    2725
    2722    2724    2734    2752    2726    2724    2734    2752
     173     177     183     333     173     177     183     335
     178     177     183     334     173     177     183     334
     178     177     183     333     178     177     183     335
    2682    2678    2680    2679    2723    2727    2728    2880
    2879    2727    2728    2880    2723    2727    2728    2730
    2729    2722    2723    2727    2724    2722    2723    2721
    2722    2723    2727    2728    2725    2721    2723    2722
    2721    2723    2727    2728    2722    2723    2727    2879
    2729    2722    2723    2721    2721    2723    2727    2879
    2722    2724    2726    2732    2721    2725    2726    2732
    2734    2724    2726    2725    2734    2724    2726    2732
     171     172     173     175     171     172     173     177
     328     171     172     173     327     171     172     173
     329     172     173     177     330     172     173     175
     329     172     173     175     330     172     173     177
     531     534     535     536     534     535     536     694
     692     535     536     693     690     534     535     536
     691     535     536     693     534     535     536     537
     692     535     536     694     534     535     536     693
     689     534     535     536     691     535     536     694
     542     540     550     568     538     540     550     568
     538     540     542     541     542     540     550     551
     545     538     540     542     538     540     550     551
    2242    2240    2241    2244    2242    2240    2241    2239
     817     814     816     991     817     814     816     815
    2240    2241    2244    2429    2240    2241    2244    2431
    2239    2241    2244    2430    2240    2241    2244    2430
    2239    2241    2244    2429    2239    2241    2244    2431
     537     541     547     697     537     541     547     699
     537     541     547     698     542     541     547     698
     542     541     547     697     542     541     547     699
     526     530     531     534     534     531     533     688
     530     531     533     532     530     531     533     688
     686     530     531     534     686     530     531     533
     534     531     533     532     687     532     533     531
    2725    2726    2732    2885    2725    2726    2732    2884
    2725    2726    2732    2886    2724    2726    2732    2884
    2724    2726    2732    2886    2724    2726    2732    2885
    2723    2721    2725    2731    2721    2725    2726    2724
    2731    2725    2726    2732    2731    2725    2726    2724
     526     530     531     533    2233    2235    2238    2239
    2423    2233    2235    2237    2237    2235    2238    2239
    2233    2235    2237    2236     539     543     544     546
     695     543     544     696     539     543     544     696
     695     543     544     546     543     544     546     552
     543     544     546     545    2723    2721    2725    2726
    2720    2721    2725    2731    2725    2721    2723    2727
    2720    2721    2725    2726    2720    2721    2723    2727
    2720    2721    2723    2722    2235    2238    2239    2241
    2235    2238    2239    2243    2241    2239    2243    2428
     540     538     545     549     540     538     545     546
     539     538     545     549     545     538     540     550
     539     538     545     546     540     538     539     543
     539     538     540     542     539     538     540     550
    2234    2233    2235    2237    2235    2233    2234    2424
    2423    2233    2234    2424    2234    2233    2235    2238
    2423    2233    2235    2238     554     553     557     706
     555     552     553     554     552     553     557     706
     557     553     554     704     552     553     554     704
     554     553     557     558     552     553     557     558
    2235    2237    2245    2432    2235    2237    2245    2433
    2235    2237    2245    2246    2236    2237    2245    2433
    2236    2237    2245    2246    2236    2237    2245    2432
    2432    2245    2246    2435    2433    2245    2246    2435
    2237    2245    2246    2435    2237    2245    2246    2434
    2237    2245    2246    2247    2432    2245    2246    2434
    2433    2245    2246    2434     546     545     549     551
     538     545     549     554     538     545     549     551
     538     545     546     552     549     545     546     552
     546     545     549     554     538     545     546     544
     539     537     541     547     547     541     542     548
     537     541     542     540     547     541     542     540
    2233    2235    2237    2245    2238    2235    2237    2245
    2231    2236    2237    2245    2232    2236    2237    2235
    2232    2236    2237    2245    2238    2235    2237    2236
     541     537     539     543     536     537     541     547
     536     537     539     543     539     537     541     542
     536     537     541     542     536     537     539     538
     549     545     546     544     545     546     552     553
     545     546     552     555     696     544     546     552
     696     544     546     545     544     546     552     553
     544     546     552     555     538     539     543     544
     545     538     539     537     537     539     543     695
     545     538     539     543     540     538     539     537
     537     539     543     544     541     537     539     538
     538     539     543     695     533     531     534     690
     533     531     534     689     530     531     534     535
     530     531     534     690     533     531     534     535
     530     531     534     689     531     534     535     691
     690     534     535     692     689     534     535     691
     690     534     535     691     531     534     535     692
     689     534     535     692     546     552     553     554
     553     552     555     705     546     552     555     705
     546     552     553     557     555     552     553     557
     553     552     555     556     546     552     555     556
     691     535     536     537     535     536     537     539
     535     536     537     541     692     535     536     537
     694     536     537     541     693     536     537     539
     694     536     537     539     693     536     537     541
    2243    2239    2241    2244    2238    2239    2241    2240
    2238    2239    2241    2244    2243    2239    2241    2240
    2425    2240    2241    2239    2425    2240    2241    2244
     538     540     542     548     537     541     542     548
     550     540     542     548     550     540     542     541

    3110 !NIMPHI: impropers
     440     444     445     623     393     387     392     394
     621     439     622     438     440     439     621     622
     440     439     621     438     440     439     622     438
     439     440     442     444     624     444     445     443
     408     434     435     436    1578    1580    1582    1738
     392     391     393     397     441     443     445     448
    1574    1577    1579    1581     589     392     394     395
     590     392     394     395     392     394     589     590
     395     394     589     590     385     387     389     392
    1579    1578    1580    1583     429     428     430     438
    1577    1581    1582    1739     409     404     408     434
    1740    1581    1582    1580     455     441     442     440
     442     441     443     446    1572    1574    1576    1577
     456     460     461     634     460     459     461     499
     588     388     389     387    1737    1578    1579    1577
     604     413     414     411     413     415     417     418
     428     427     429     433     421     419     423     418
     426     427     429     431     617     433     618     619
     429     433     617     619     429     433     617     618
     429     433     618     619     458     456     460     437
    1237    1238    1240    1242     425     426     614     615
     425     426     427     615     427     426     614     615
     425     426     427     614     416     415     417     425
     411     416     417     412    1299    1297    1301    1252
    1238    1237    1402    1403    1236    1237    1238    1403
    1236    1237    1238    1402    1236    1237    1402    1403
     417     425     612     613     426     425     612     613
     613     417     425     426     612     417     425     426
     412     408     409     407     405     407     409     411
     427     431     432     616     420     419     421     424
     407     411     414     416     414     413     415     603
    1404    1239    1240    1238     437     430     432     431
    1408    1250    1251    1249    1244    1245    1247    1406
    1248    1246    1247    1245    1247    1248    1249    1254
    1245    1241    1244    1253    1248    1249    1251    1256
    1243    1246    1247    1250    1246    1242    1243    1241
    1239    1241    1243    1244    1246    1250    1251    1407
    1238    1242    1243    1405     423     422     606     607
     420     422     423     606     420     422     606     607
     420     422     423     607     576     575     577     725
    1254    1258    1259    1414    1248    1254    1255    1258
     726     571     576     575     727     571     576     575
     575     576     726     727     571     576     726     727
     608     419     423     422    1244    1253    1409    1411
    1244    1253    1410    1411    1409    1253    1410    1411
    1244    1253    1409    1410    1240    1239    1241    1252
    1249    1256    1257    1412     422     420     421     605
     728     570     577     575    1297    1301    1302    1451
    1418    1259    1262    1263    1263    1262    1417    1418
    1259    1262    1417    1418    1417    1259    1262    1263
    1255    1260    1261    1415     570     569     571     576
    1416    1260    1261    1259     452     448     451     454
     569     573     574     723     448     447     449     446
    1573    1572    1574    1733    1254    1255    1257    1260
     577     570     571     572     384     388     389     587
     400     377     378     376     629     454     630     631
     451     454     629     630     451     454     629     631
     451     454     630     631     570     572     574     722
     451     447     448     443     378     400     594     595
     449     450     452     453    1571    1575    1576    1735
     724     573     574     572     627     451     452     450
     571     569     573     524    1736    1575    1576    1574
    1261    1258    1259    1262    1413    1256    1257    1255
     466     465     467     472     470     465     466     464
     475     471     472     465     465     467     469     637
     472     471     473     470     471     473     474     638
     463     464     466     468     464     463     635     636
     635     463     636     462     464     463     635     462
     464     463     636     462     473     474     476     477
     472     475     476     639     478     475     476     474
    3556    3395    3396    3394    1206    1203    1204    1202
    3557    3398    3399    3397    3391    3395    3396    3555
    3394    3397    3399    3401    1199    1201    1202    1366
    1201    1202    1204    1205    3392    3394    3396    3397
     464     468     469     492     458     457     459     462
    1209    1207    1211    1206     441     446     447     625
    3393    3391    3395    3390     461     457     459     502
    1200    1199    1201    1198    1207    1211    1212    1371
     468     467     469     493     481     479     483     478
    3393    3392    3394    3553    3554    3392    3393    3391
     500     501     506     661     502     501     506     661
     500     501     502     506     500     501     502     661
     657     497     498     494    3398    3400    3402    3558
     633     457     458     456     493     494     496     498
    1228    1229    1230    1234    1230    1229    1234    1389
    1228    1229    1230    1389    1228    1229    1234    1389
     496     495     497     654     496     495     653     654
     497     495     653     654     496     495     497     653
    1189    1185    1187    1230    3399    3398    3400    3403
     495     497     498     656    1231    1232    1233    1236
    1231    1232    1236    1393    1231    1232    1233    1393
    1233    1232    1236    1393    1232    1236    1400    1401
    1237    1236    1400    1401    1232    1236    1237    1401
    1232    1236    1237    1400    1187    1230    1390    1391
    1391    1187    1230    1229    1229    1230    1390    1391
    1390    1187    1230    1229     469     493     651     652
     651     469     493     494     494     493     651     652
     652     469     493     494    1188    1187    1189    1227
    1229    1228    1231    1227    1388    1227    1228    1229
    1229    1228    1231    1388    1388    1227    1228    1231
     655     494     496     495    1387    1189    1227    1228
    1189    1227    1386    1387    1386    1189    1227    1228
    1228    1227    1386    1387    1228    1231    1232    1392
    1228    1231    1235    1392    1232    1231    1235    1392
    1228    1231    1232    1235    1232    1233    1234    1395
    1232    1233    1234    1394    1232    1233    1394    1395
    1234    1233    1394    1395    1396    1233    1234    1229
    1397    1233    1234    1229    1233    1234    1396    1397
    1229    1234    1396    1397    1120    1119    1121    1125
    1134    1133    1135    1138    1329    1133    1134    1132
    1124    1125    1320    1321    1320    1124    1125    1121
    1121    1125    1320    1321    1321    1124    1125    1121
    1140    1136    1137    1135    1134    1132    1136    1127
    1137    1132    1136    1162    1118    1119    1121    1127
    1121    1115    1120    1122    1119    1113    1118    1131
    1123    1124    1125    1126    1113    1115    1117    1120
    1114    1113    1115    1118    1133    1135    1137    1139
    1326    1131    1327    1328    1118    1131    1327    1328
    1118    1131    1326    1328    1118    1131    1326    1327
    1318    1120    1122    1123    1317    1120    1122    1123
    1120    1122    1317    1318    1123    1122    1317    1318
    1122    1123    1235    1319    1122    1123    1124    1319
    1235    1123    1124    1319    1122    1123    1235    1124
     917     921     922    1070    1136    1162    1163    1164
    1398    1231    1235    1123    1399    1231    1235    1123
    1123    1235    1398    1399    1231    1235    1398    1399
    1316    1116    1117    1115     916     917     918     921
    1068     917     918     913    1266    1273    1274    1277
     916     919     920    1069    1264    1263    1419    1420
    1262    1263    1419    1420    1262    1263    1264    1419
    1262    1263    1264    1420    1270    1276    1429    1430
    1428    1276    1429    1430    1270    1276    1428    1430
    1270    1276    1428    1429    1268    1278    1279    1296
    1264    1265    1267    1269     907     908     910    1060
     910     916     917     919     447     449     450     626
    1273    1277    1279    1282    1425    1275    1426    1427
    1269    1275    1425    1427    1269    1275    1425    1426
    1269    1275    1426    1427    1270    1265    1269    1275
    1267    1266    1268    1273    1431    1278    1279    1277
    1266    1268    1270    1278    1269    1268    1270    1276
    1265    1264    1421    1422    1263    1264    1421    1422
    1263    1264    1265    1421    1263    1264    1265    1422
     884     882     883     881     880     881     883    1042
     890     894     895    1050     884     890     891     894
     897     894     895     898    1052     896     897     895
     891     896     897    1051     883     884     885     890
     890     891     893     896     879     882     883     886
     899     898    1053    1054    1053     895     898     899
    1054     895     898     899     895     898    1053    1054
     881     877     880     889     884     885     887     892
    1049     892     893     891     882     878     879     877
     875     877     879     880     882     886     887    1043
     880     889    1045    1046     880     889    1045    1047
     880     889    1046    1047    1045     889    1046    1047
     874     878     879    1041     885     892     893    1048
     479     483     484     643    3420    3421    3586    3587
    3422    3421    3586    3587    3420    3421    3422    3587
    3420    3421    3422    3586    2609    2610    2798    2799
    2611    2610    2798    2799    2609    2610    2611    2798
    2609    2610    2611    2799    2796    2601    2609    2610
    2797    2601    2609    2610    2610    2609    2796    2797
    2601    2609    2796    2797    1044     886     887     885
    2792    2603    2607    2606     940     939     941    1089
     934     933     935     940    2606    2604    2605    2789
    2604    2603    2605    2608    1092     934     941     939
    2598    2597    2599    2787    2788    2597    2598    2595
    1091     935     940     939    1090     935     940     939
     935     940    1090    1091     939     940    1090    1091
    2600    2599    2601    2609    2605    2608    2793    2795
    2605    2608    2793    2794    2793    2608    2794    2795
    2605    2608    2794    2795    2610    2611    2613    2615
     935     933     937     888    2589    2591    2593    2595
    2597    2599    2601    2602     876     875     877     888
    2605    2603    2607    2602     941     934     935     936
    2591    2595    2598    2600     873     874     876     878
    1040     875     876     874    2595    2600    2601    2596
    2611    2615    2616    2800     741     743     744     765
    1352    1172    1173    1171    1167    1168    1170    1172
     263      87      88      86    1169    1171    1173    1176
    1168    1172    1173    1351    1168    1167    1350    1166
    1349    1167    1350    1166    1168    1167    1349    1166
    1168    1167    1349    1350    1179    1175    1176    1171
      88      84      87      90      85      86      88      89
    1183    1169    1170    1168     737     741     742     743
    1180    1176    1179    1182    1170    1169    1171    1174
     742     764     958     959     764     741     742     740
    1067     914     915     913      83      85      86     262
     744     733     734     732    1176    1175    1177    1174
     265      90     266     267      87      90     265     267
      87      90     265     266      87      90     266     267
    1179    1182    1357    1358    1179    1182    1357    1359
    1357    1182    1358    1359    1179    1182    1358    1359
     946     743     744     734     732     737     738     741
    1175    1177    1178    1354    1169    1174    1175    1353
     916     909     910     908    1432    1281    1282    1277
    2671    2670    2672    2675    3419    3307    3308    3503
    3306    3307    3419    3503    3306    3307    3419    3308
    3306    3307    3308    3503     899     900    1057    1058
     901     900    1057    1058     899     900     901    1057
     899     900     901    1058    3416    3417    3418    3579
    3416    3417    3578    3579    3418    3417    3578    3579
    3416    3417    3418    3578    3583    3415    3419    3307
    3582    3415    3419    3307    3415    3419    3582    3583
    3307    3419    3582    3583     902     909     910     913
     905     904     906     912    3416    3420    3421    3585
    3416    3420    3421    3584    3416    3420    3584    3585
    3421    3420    3584    3585     898     899    1055    1056
     900     899    1055    1056     898     899     900    1056
     898     899     900    1055     903     902     904     909
     902     904     906     914    3307    3308    3309    3310
    3412    3415    3416    3419    3412    3415    3416    3576
    3412    3415    3419    3576    3416    3415    3419    3576
     904     914     915     932    3415    3416    3417    3577
    3415    3416    3420    3577    3417    3416    3420    3577
    3415    3416    3417    3420     906     901     905     911
     909     913     915     918     906     912    1064    1066
    1064     912    1065    1066     906     912    1064    1065
     906     912    1065    1066     900     901     903     905
     907     902     903     901     905     911    1062    1063
     905     911    1061    1062     905     911    1061    1063
    1061     911    1062    1063     903     907     908    1059
    3428    3429    3431    3590    3593    3437    3594    3595
    3428    3437    3593    3594    3428    3437    3593    3595
    3428    3437    3594    3595    3429    3425    3428    3437
    3423    3425    3427    3428    3430    3426    3427    3425
    3432    3430    3431    3429    3427    3430    3431    3434
    3438    3442    3443    3598      11      12      14     217
    3432    3438    3439    3442    3431    3432    3433    3438
      36      13      14      12    3424    3423    3425    3436
    3422    3426    3427    3589      14      36     230     231
    2801    2617    2802    2803    2613    2617    2801    2803
    2613    2617    2802    2803    2613    2617    2801    2802
    3438    3439    3441    3444     563     564     565     715
     565     564     715     567     563     564     715     567
     563     564     565     567       9      13      14      15
    3588    3423    3424    3422      12      10      11      19
     559     563     564     713     559     563     713     714
     559     563     564     714     564     563     713     714
       4       9      10      13    3421    3422    3424    3426
    3600    3444    3445    3443    2640    2644    2645    2818
    3439    3444    3445    3599    2645    2683    2842    2843
    2842    2645    2683    2684    2843    2645    2683    2684
    2684    2683    2842    2843     154     158     159     315
    2626    2625    2627    2630     316     158     159     157
    2590    2589    2591    2594    2574    2575    2577    2583
    2691    2579    2580    2775    2578    2579    2580    2775
    2578    2579    2691    2775    2578    2579    2691    2580
    2639    2625    2626    2624    2576    2578    2773    2774
    2579    2578    2773    2774    2773    2576    2578    2579
    2774    2576    2578    2579    2593    2588    2592    2618
    2785    2589    2590    2588    2577    2581    2776    2777
    2580    2581    2776    2777    2777    2580    2581    2577
    2776    2580    2581    2577    2644    2643    2645    2683
    2623    2624    2626    2628    2596    2592    2593    2591
    2808    2628    2629    2627    2577    2571    2576    2578
    2579    2580    2581    2582    2590    2588    2592    2583
    2576    2575    2577    2581    2612    2611    2613    2617
    2624    2628    2629    2807    2592    2618    2619    2620
    2613    2612    2614    2622    2805    2623    2806    2622
    2624    2623    2806    2622    2624    2623    2805    2806
    2624    2623    2805    2622    2688    2689    2690    2850
    2688    2689    2850    2851    2688    2689    2690    2851
    2690    2689    2850    2851    2687    2688    2689    2849
    2689    2688    2692    2849    2687    2688    2689    2692
    2687    2688    2692    2849    2688    2692    2693    2856
    2688    2692    2856    2857    2688    2692    2693    2857
    2693    2692    2856    2857    2693    2694    2696    2698
    2852    2689    2690    2685    2689    2690    2852    2853
    2685    2690    2852    2853    2853    2689    2690    2685
    2684    2685    2690    2845    2686    2685    2690    2845
    2684    2685    2686    2845    2684    2685    2686    2690
    2684    2687    2688    2848    2684    2687    2691    2848
    2688    2687    2691    2848    2684    2687    2688    2691
    2694    2698    2699    2861    2692    2693    2694    2859
    2692    2693    2858    2859    2694    2693    2858    2859
    2692    2693    2694    2858    2844    2683    2684    2685
    2685    2684    2687    2844    2685    2684    2687    2683
    2844    2683    2684    2687    2702    2698    2699    2697
    2860    2695    2696    2694    2695    2697    2699    2700
    2687    2691    2854    2855    2579    2691    2854    2855
    2854    2687    2691    2579    2855    2687    2691    2579
    2679    2681    2682    2840    2696    2695    2697    2708
    2759    2760    2910    2911    2755    2760    2910    2911
    2911    2755    2760    2759    2910    2755    2760    2759
    2841    2681    2682    2678    2912    2754    2761    2759
    2760    2759    2761    2909     739     740     742     945
    2761    2754    2755    2756    3510    3315    3511    3512
    3302    3315    3511    3512    3302    3315    3510    3512
    3302    3315    3510    3511    3481    3485    3486    3635
    3636    3485    3486    3484    3302    3303    3305    3311
    3505    3308    3309    3305    3308    3309    3504    3505
    3504    3308    3309    3305    3305    3309    3504    3505
    3298    3297    3299    3302    3296    3300    3301    3499
    3489    3482    3483    3484    2755    2753    2757    2708
    3500    3300    3301    3299    3483    3481    3485    3436
    2754    2756    2758    2906    3304    3303    3305    3309
    2754    2753    2755    2760    2908    2757    2758    2756
    3482    3481    3483    3488    2753    2757    2758    2907
    3307    3306    3501    3502    3502    3304    3306    3307
    3304    3306    3501    3502    3501    3304    3306    3307
    3482    3484    3486    3634    3297    3299    3301    3304
    3305    3299    3304    3306    3303    3297    3302    3315
     553     557     558     706     390     403     598     600
     390     403     599     600     390     403     598     599
     598     403     599     600    3449    3448    3605    3606
    3447    3448    3449    3605    3447    3448    3449    3606
    3447    3448    3605    3606    3446    3447    3603    3604
    3448    3447    3603    3604    3446    3447    3448    3603
    3446    3447    3448    3604    3447    3446    3601    3602
    3601    3443    3446    3447    3443    3446    3601    3602
    3602    3443    3446    3447     218      15      16       6
     560     566     718     719     719     565     566     560
     565     566     718     719     718     565     566     560
     564     565     716     717     564     565     566     717
     566     565     716     717     564     565     566     716
     391     385     390     403      13      15      16      37
     560     561     562     710     562     561     709     710
     560     561     562     709     560     561     709     710
    3448    3449    3451    3453     406     404     408     399
     402     385     386     384     559     560     566     708
     559     560     561     708     561     560     566     708
     559     560     561     566     383     384     386     388
     386     385     387     390     390     391     393     399
    3454    3449    3453    3459    3609    3459    3610    3611
    3453    3459    3609    3610    3453    3459    3609    3611
    3453    3459    3610    3611      16       5       6       4
     707     558     559     560     560     559     563     558
     707     558     559     563     560     559     563     707
     556     562     711     712     561     562     711     712
     712     556     562     561     711     556     562     561
    3445    3442    3443    3446       1       5       6     215
       2       4       6       9     601     405     406     404
     162     166     167     322    2635    2631    2632    2627
    2633    2634    2636    2637     155     156     157     162
     406     405     407     410     152     153     155     314
    2631    2633    2634    2810    2635    2638    2813    2814
    2635    2638    2814    2815    2813    2638    2814    2815
    2635    2638    2813    2815    2811    2635    2636    2634
     156     154     155     153     609     424     610     611
     421     424     609     610     421     424     609     611
     421     424     610     611    2632    2631    2633    2630
     156     157     159     164    2636    2632    2635    2638
    2625    2630    2631    2809    2625    2627    2629    2632
    3451    3455    3456    3607     156     162     163     166
    2704    2710    2711    2714    2703    2704    2705    2710
    2710    2711    2713    2716    2711    2716    2717    2871
    2704    2702    2703    2701    2710    2714    2715    2870
    2872    2716    2717    2715    2717    2714    2715    2718
    2869    2712    2713    2711    2704    2705    2707    2712
    2705    2712    2713    2868    2864    2706    2707    2705
    2700    2701    2703    2862     170     171     172     328
     170     171     327     328     170     171     172     327
     172     171     327     328    2719    2718    2873    2874
    2715    2718    2873    2874    2874    2715    2718    2719
    2873    2715    2718    2719     324     168     169     167
     163     168     169     323     169     166     167     170
     321     164     165     163     157     164     165     320
     326     167     170     171     167     170     325     326
     171     170     325     326     325     167     170     171
    2680    2679    2837    2838    2680    2679    2681    2837
    2681    2679    2837    2838    2680    2679    2681    2838
     162     163     165     168    2699    2702    2703    2706
    2702    2706    2707    2863     552     555     556     705
     375     373     374     372     376     374     375     383
     365     369     370     579     375     383     585     586
     375     383     384     585     375     383     384     586
     384     383     585     586     373     377     378     379
    2701    2697    2700    2709    2700    2709    2865    2867
    2700    2709    2865    2866    2865    2709    2866    2867
    2700    2709    2866    2867     366     368     370     373
     377     379     380     401     367     365     369     578
     366     371     372     381     368     373     374     377
    2721    2720    2877    2878    2719    2720    2721    2877
    2719    2720    2721    2878    2719    2720    2877    2878
     558     555     556     562     582     379     380     370
     382     366     367     365    2718    2719    2875    2876
    2720    2719    2875    2876    2718    2719    2720    2876
    2718    2719    2720    2875     375     376     378     581
     371     372     374     580     367     366     368     371
    2725    2731    2881    2882    2881    2731    2882    2883
    2725    2731    2881    2883    2725    2731    2882    2883
     557     556     558     559     380     369     370     368
    1994    2001    2002    2005    1994    1996    1998    2006
    1995    1994    1996    2001    1999    1994    1995    1993
    1998    1993    1997    2003    1992    1993    1995    1997
    1995    1999    2000    2151    1999    2000    2002    2152
    2159    2006    2007    2005    1993    1992    2149    2150
    1991    1992    2149    2150    1991    1992    1993    2149
    1991    1992    1993    2150    1997    1996    1998    2004
    2008    2001    2002    2000    2001    2005    2007    2010
    3615    3462    3463    3461    3457    3461    3463    3466
    1996    2006    2007    2024    3452    3462    3463    3480
    2008    2009    2010    2013    1747    1586    1588    1587
    2160    2009    2010    2005    2008    2011    2012    2161
    2002    2008    2009    2011    3616    3465    3466    3461
    2330    2329    2494    2495    2328    2329    2494    2495
    2328    2329    2330    2495    2328    2329    2330    2494
    1990    1991    2147    2148    1990    1991    1992    2147
    1992    1991    2147    2148    1990    1991    1992    2148
    1987    1990    2145    2146    1991    1990    2145    2146
    2146    1987    1990    1991    2145    1987    1990    1991
    1589    1587    1745    1746    1588    1587    1745    1746
    1588    1587    1589    1745    1588    1587    1589    1746
    2938    2939    2941    2947    2329    2330    2332    2334
    3464    3467    3468    3617    3458    3464    3465    3467
    3149    2953    2954    2952    2389    2393    2394    2543
    2544    2393    2394    2392    3477    3478    3630    3631
    3472    3478    3630    3631    3630    3477    3478    3472
    3631    3477    3478    3472    2332    2331    2333    2344
    2397    2390    2391    2392    2548    2390    2397    2395
    3473    3474    3623    3624    3623    3468    3474    3473
    3468    3474    3623    3624    3624    3468    3474    3473
    2395    2396    2546    2547    2391    2396    2546    2547
    2546    2391    2396    2395    2547    2391    2396    2395
    3472    3471    3475    3619    3619    3470    3471    3472
    3472    3471    3475    3470    3619    3470    3471    3475
    3471    3475    3625    3626    3471    3475    3476    3626
    3476    3475    3625    3626    3471    3475    3476    3625
    3473    3472    3478    3620    3471    3472    3478    3620
    3471    3472    3473    3620    3471    3472    3473    3478
    3465    3469    3470    3618    2496    2331    2332    2330
    3469    3468    3470    3471    3472    3473    3474    3621
    3472    3473    3621    3622    3474    3473    3621    3622
    3472    3473    3474    3622    3475    3476    3477    3479
    3475    3476    3627    3479    3475    3476    3477    3627
    3477    3476    3627    3479    2396    2395    2397    2545
    3464    3465    3466    3469    2390    2392    2394    2542
    3470    3467    3468    3474    3476    3477    3478    3629
    3478    3477    3628    3629    3476    3477    3478    3628
    3476    3477    3628    3629    2390    2389    2391    2396
    2391    2389    2393    2344    2385    2386    2538    2539
    2538    2385    2386    2380    2380    2386    2538    2539
    2539    2385    2386    2380    2384    2385    2536    2537
    2386    2385    2536    2537    2384    2385    2386    2536
    2384    2385    2386    2537    1096    1101    1102    1105
    2381    2380    2386    2528    2379    2380    2386    2528
    2379    2380    2381    2528    2379    2380    2381    2386
    2383    2384    2385    2387    2383    2384    2535    2387
    2385    2384    2535    2387    2383    2384    2385    2535
    1103    1101    1102    1100    1104    1102    1103    1111
    2382    2381    2529    2530    2380    2381    2382    2530
    2380    2381    2382    2529    2380    2381    2529    2530
    1101    1105    1106    1107    1103    1104    1106    1309
    1795    1642    1643    1641    1637    1641    1643    1646
    1632    1642    1643    1660    1128    1105    1106    1104
    1105    1107    1108    1129    2380    2379    2383    2527
    2527    2378    2379    2380    2380    2379    2383    2378
    2527    2378    2379    2383    1099    1100    1102    1308
    2379    2383    2533    2534    2379    2383    2384    2533
    2379    2383    2384    2534    2384    2383    2533    2534
    1630    1637    1638    1641    2376    2382    2531    2532
    2381    2382    2531    2532    2532    2376    2382    2381
    2531    2376    2382    2381    2938    2951    3147    3148
    2938    2951    3146    3148    2938    2951    3146    3147
    3146    2951    3147    3148    1094    1099    1100    1109
    1106    1128    1322    1323    1310    1107    1108    1098
    1094    1096    1098    1101    1638    1644    1645    1647
    1103    1111    1313    1314    1103    1111    1112    1314
    1103    1111    1112    1313    1112    1111    1313    1314
    1998    2004    2156    2157    1998    2004    2157    2158
    1998    2004    2156    2158    2156    2004    2157    2158
    2402    2199    2200    2190    1734    1572    1573    1571
    1565    1566    1568    1569    2197    2199    2200    2221
    1567    1563    1564    1557    1095    1094    1096    1099
    1108    1097    1098    1096    1093    1097    1098    1307
    1820    1662    1669    1667    2200    2189    2190    2188
    1110    1094    1095    1093    1668    1667    1669    1817
    1095    1093    1097    1306    1564    1567    1568    1731
    1570    1567    1568    1566    1573    1571    1575    1570
    2009    2013    2014    2162    2013    2012    2014    2015
    2014    2011    2012    2018    2016    2015    2019    2163
    2163    2014    2015    2019    2163    2014    2015    2016
    2016    2015    2019    2014    2020    2019    2169    2170
    2015    2019    2020    2169    2015    2019    2169    2170
    2015    2019    2020    2170    3377    3379    3381    3549
    2184    2026    2033    2031    2032    2031    2033    2181
    2019    2020    2171    2023    2019    2020    2021    2171
    2021    2020    2171    2023    2019    2020    2021    2023
    3380    3379    3381    3405    3569    3409    3410    3406
    3405    3406    3408    3410    2033    2026    2027    2028
    3564    3381    3405    3406    3563    3381    3405    3406
    3406    3405    3563    3564    3381    3405    3563    3564
    1561    1585    1743    1744    1743    1561    1585    1586
    1586    1585    1743    1744    1744    1561    1585    1586
    2027    2032    2182    2183    2182    2027    2032    2031
    2183    2027    2032    2031    2031    2032    2182    2183
     642     480     481     479    1585    1586    1588    1590
    3384    3387    3388    3551    2020    2021    2172    2173
    2022    2021    2172    2173    2020    2021    2022    2173
    2020    2021    2022    2172    2017    2016    2022    2164
    2015    2016    2022    2164    2015    2016    2017    2164
    2015    2016    2017    2022    1749    1589    1590    1586
     481     480     482     641    2168    2012    2018    2017
    2167    2012    2018    2017    2012    2018    2167    2168
    2017    2018    2167    2168    3397    3401    3402    3559
    2026    2028    2030    2178    1834    1856    2050    2051
    1811    1657    1658    1652    1657    1658    1810    1811
    1810    1657    1658    1652    1652    1658    1810    1811
    1655    1656    1657    1659    1657    1656    1807    1659
    1655    1656    1807    1659    1655    1656    1657    1807
    1644    1647    1648    1797    2016    2017    2018    2165
    2016    2017    2165    2166    2016    2017    2018    2166
    2018    2017    2165    2166    1652    1651    1655    1799
    1799    1650    1651    1652    1652    1651    1655    1650
    1799    1650    1651    1655    2016    2022    2174    2175
    2175    2021    2022    2016    2174    2021    2022    2016
    2021    2022    2174    2175    1649    1648    1650    1651
    1653    1654    1803    1804    1803    1648    1654    1653
    1804    1648    1654    1653    1648    1654    1803    1804
    1652    1653    1654    1801    1652    1653    1801    1802
    1654    1653    1801    1802    1652    1653    1654    1802
    1651    1655    1656    1805    1651    1655    1805    1806
    1656    1655    1805    1806    1651    1655    1656    1806
    1650    1647    1648    1654    1651    1652    1653    1658
    1653    1652    1658    1800    1651    1652    1658    1800
    1651    1652    1653    1800    1658    1657    1808    1809
    1656    1657    1808    1809    1656    1657    1658    1809
    1656    1657    1658    1808    3560    3401    3402    3400
    1082     929     930     924     929     930    1082    1083
     924     930    1082    1083    1083     929     930     924
     928     929     930    1080     928     929    1080    1081
     930     929    1080    1081     928     929     930    1081
     927     928     929     931     929     928    1079     931
     927     928    1079     931     927     928     929    1079
    1529    1522    1524    1523     924     923     927    1071
    1071     922     923     924     924     923     927     922
    1071     922     923     927     923     927    1077    1078
     923     927     928    1078     928     927    1077    1078
     923     927     928    1077     923     924     925     930
     925     924     930    1072     923     924     930    1072
     923     924     925    1072    1519    1523    1524    1708
    1111    1112    1114    1116    1459    1457    1461    1670
    1112    1116    1117    1315    1457    1461    1462    1671
    1645    1649    1650    1798     921     920     922     923
     926     925    1073    1074     924     925     926    1074
     924     925     926    1073     924     925    1073    1074
    1130    1113    1114    1112    1644    1645    1646    1649
    1796    1645    1646    1641    1518    1517    1704    1705
    1509    1517    1704    1705    1705    1509    1517    1518
    1704    1509    1517    1518    1518    1519    1521    1523
    3547    3375    3548    3374    3376    3375    3548    3374
    3376    3375    3547    3548    3376    3375    3547    3374
    1557    1559    1561    1729    1755    1551    1594    1593
    1754    1551    1594    1593    1551    1594    1754    1755
    1593    1594    1754    1755    1558    1557    1559    1564
     922     919     920     926    1550    1548    1552    1529
    3378    3377    3379    3384    1563    1565    1566    1730
    1564    1563    1565    1562    1548    1552    1553    1726
    3385    3386    3388    3389    3387    3383    3384    3377
    3390    3387    3388    3386    1725    1549    1550    1548
    3384    3383    3385    3382    1555    1556    1558    1560
    3376    3380    3381    3404    3382    3377    3378    3376
    3375    3376    3378    3380    1556    1555    1727    1728
    1727    1555    1728    1554    1556    1555    1728    1554
    1556    1555    1727    1554    1560    1559    1561    1585
    1556    1560    1561    1584    1550    1549    1551    1554
    3383    3385    3386    3550    1562    1557    1558    1556
     925     926    1075    1076    1076     920     926     925
    1075     920     926     925     920     926    1075    1076
    1553    1549    1551    1594    3353    3358    3359    3537
    3359    3361    3362    3538    3360    3359    3361    3358
     482     485     487     489     645     486     487     485
    3353    3355    3357    3360    3363    3359    3360    3355
    3111    3112    3113    3115    3113    3112    3263    3115
    3111    3112    3263    3115    3111    3112    3113    3263
    3354    3353    3355    3358    3361    3362    3364    3365
    3114    3113    3264    3265    3112    3113    3114    3264
    3112    3113    3264    3265    3112    3113    3114    3265
    3539    3363    3364    3362    3364    3360    3363    3366
    3107    3111    3112    3261    3107    3111    3261    3262
    3112    3111    3261    3262    3107    3111    3112    3262
     648     489     490     488     480     482     484     485
     485     489     490     647     644     483     484     482
    3108    3114    3266    3267    3267    3113    3114    3108
    3113    3114    3266    3267    3266    3113    3114    3108
    3107    3108    3109    3256    3109    3108    3114    3256
    3107    3108    3109    3114    3107    3108    3114    3256
    3536    3356    3357    3355     487     486     488     491
     486     488     490     646    3109    3110    3259    3260
    3104    3110    3259    3260    3260    3104    3110    3109
    3259    3104    3110    3109    3567    3406    3408    3407
    1514    1512    1513    1697     933     937     938    1087
     748     752     753     951    1505    1507    1509    1510
    1831    1832    1834    2037    1088     937     938     936
    1856    1833    1834    1832     756     755     757     761
     757     751     756     758     868     872     873    1036
     873     872    1036    1037     868     872    1036    1037
     868     872     873    1037     867     871    1034    1035
    1035     867     871     759     759     871    1034    1035
    1034     867     871     759     864     867     868    1028
     868     867     871    1028     864     867     871    1028
     864     867     868     871     952     752     753     751
     872     873    1038    1039     872     873     874    1039
     872     873     874    1038     874     873    1038    1039
    1700    1511    1515    1514     749     751     753     756
     754     755     757     763    1513    1511    1515    1510
     954     756     758     759     953     756     758     759
     759     758     953     954     756     758     953     954
     758     759     871     760     871     759     760     955
     758     759     760     955     758     759     871     955
     759     760     761     762     956     760     761     757
     757     761     956     957     957     760     761     757
     760     761     956     957     934     936     938    1086
    1512    1514    1515    1698    1512    1514    1698    1699
    1512    1514    1515    1699    1515    1514    1698    1699
    1512    1511    1513    1516     750     749     751     754
     746     730     731     729     731     730     732     735
     730     735     736     745     731     729     733     942
    1520    1519    1521    1525     730     732     734     737
     735     736     738     944    3337    3338    3339    3526
    3337    3338    3339    3527    3337    3338    3526    3527
    3339    3338    3526    3527    1513    1516    1701    1703
    1701    1516    1702    1703    1513    1516    1701    1702
    1513    1516    1702    1703    1521    1520    1522    1530
    1521    1525    1710    1711    1521    1525    1709    1710
    1521    1525    1709    1711    1709    1525    1710    1711
     729     733     734     943     739     737     738     736
    1355    1179    1180    1178    1177    1178    1180    1181
    3339    3343    3344    3528    1508    1507    1509    1517
    1517    1518    1706    1707    1519    1518    1706    1707
    1517    1518    1519    1706    1517    1518    1519    1707
    3368    3372    3373    3546    3417    3418    3580    3581
    3580    3417    3418    3413    3413    3418    3580    3581
    3581    3417    3418    3413    3373    3411    3570    3571
    3570    3373    3411    3412    3571    3373    3411    3412
    3412    3411    3570    3571    3412    3413    3414    3573
    3414    3413    3418    3573    3412    3413    3414    3418
    3412    3413    3418    3573    3373    3369    3371    3414
    3370    3368    3372    3349    3341    3340    3342    3350
    3338    3339    3341    3343    3574    3371    3414    3413
    3371    3414    3574    3575    3575    3371    3414    3413
    3413    3414    3574    3575    3372    3371    3373    3411
    3351    3352    3354    3356    1532    1531    1713    1530
    1532    1531    1714    1530    1713    1531    1714    1530
    1532    1531    1713    1714    3340    3339    3341    3345
    3545    3369    3370    3368    3529    3345    3530    3531
    3341    3345    3529    3530    3341    3345    3529    3531
    3341    3345    3530    3531    3352    3351    3534    3350
    3352    3351    3533    3534    3352    3351    3533    3350
    3533    3351    3534    3350    3349    3342    3344    3343
    3370    3369    3371    3374    3367    3353    3354    3352
    3352    3356    3357    3535    3572    3411    3412    3415
    3413    3412    3415    3411    3572    3411    3412    3413
    3413    3412    3415    3572     822     821     823     826
     825     821     823     866     999     827    1000     826
     828     827     999    1000     828     827     999     826
     828     827    1000     826     824     823     825     863
    3433    3440    3441    3596     820     824     825     998
    3592    3434    3435    3433     827     828     830     832
    3106    3103    3104    3110     997     821     822     820
    1022     825     863     864     825     863    1022    1023
    1023     825     863     864     864     863    1022    1023
     835     837     838    1002     823     866    1026    1027
    1026     823     866     865     865     866    1026    1027
    1027     823     866     865    3108    3109    3257    3258
    3110    3109    3257    3258    3108    3109    3110    3257
    3108    3109    3110    3258    3105    3104    3106    3107
    3597    3440    3441    3439    3290    3312    3506    3507
    3255    3106    3107    3108    3108    3107    3111    3106
    3255    3106    3107    3111    3108    3107    3111    3255
     822     820     824     801    3432    3433    3435    3440
    3430    3434    3435    3591    3289    3291    3292    3313
     864     865     866    1025     864     865     866     870
     866     865     870    1025     864     865     870    1025
    2569    2571    2573    2576    2347    2352    2353    2507
     867     868     869     872     869     868     872    1029
     867     868     872    1029     867     868     869    1029
    1024     863     864     867    1024     863     864     865
     865     864     867    1024     865     864     867     863
     770     769     771     774    2575    2569    2574    2587
    2508    2352    2353    2351    2586    2569    2570    2568
     770     768     772     763     769     771     773     775
     869     870    1032    1033    1032     869     870     865
     865     870    1032    1033    1033     869     870     865
    2570    2569    2571    2574     868     869     870    1030
     868     869     870    1031     868     869    1030    1031
     870     869    1030    1031    2361    2367    2517    2518
    2361    2367    2517    2519    2361    2367    2518    2519
    2517    2367    2518    2519    2574    2587    2783    2784
    2574    2587    2782    2783    2574    2587    2782    2784
    2782    2587    2783    2784     965     769     770     768
    2362    2357    2361    2367     747     748     750     752
     968     777     778     775     755     749     754     767
    3513    3317    3318    3316    3317    3319    3321    3323
    3318    3317    3319    3322    3318    3316    3320    3311
    3324    3320    3321    3319    3319    3323    3326    3328
    3323    3328    3329    3324    3516    3325    3326    3323
    3326    3325    3327    3515    3321    3316    3320    3346
    2568    2572    2573    2771    3328    3327    3329    3337
     739     747     949     950     748     747     949     950
     739     747     748     949     739     747     748     950
    2559    2567    2769    2770    2559    2567    2568    2770
    2568    2567    2769    2770    2559    2567    2568    2769
    3325    3327    3329    3330    3090    3096    3248    3249
    3090    3096    3248    3250    3248    3096    3249    3250
    3090    3096    3249    3250     754     767     962     964
     754     767     962     963     962     767     963     964
     754     767     963     964    2559    2560    2562    2765
    3329    3337    3524    3525    3338    3337    3524    3525
    3525    3329    3337    3338    3524    3329    3337    3338
    2360    2370    2371    2388    2361    2360    2362    2368
     740     738     739     747    2772    2572    2573    2571
    2362    2368    2520    2522    2362    2368    2521    2522
    2520    2368    2521    2522    2362    2368    2520    2521
    2567    2568    2570    2572    2560    2558    2559    2567
    3089    3095    3246    3247    3089    3095    3245    3247
    3089    3095    3245    3246    3245    3095    3246    3247
     766     749     750     748    3312    3289    3290    3288
    3278    3283    3284    3293    3314    3297    3298    3296
    3295    3296    3298    3300    3279    3278    3280    3283
    3283    3284    3286    3492    3320    3346    3347    3348
    3091    3092    3094    3244    3086    3093    3094    3097
    3277    3281    3282    3491    3285    3289    3290    3291
    3287    3288    3290    3493    3251    3098    3099    3097
    3088    3098    3099    3116    3292    3281    3282    3280
    3296    3295    3497    3498    3287    3295    3497    3498
    3287    3295    3296    3497    3287    3295    3296    3498
    3100    3093    3094    3092    3280    3285    3286    3289
    3089    3088    3090    3096    3100    3101    3102    3105
    3252    3101    3102    3097    3086    3088    3090    3098
    3087    3086    3088    3093    3288    3286    3287    3295
    3287    3285    3286    3284    3494    3291    3292    3282
    3101    3105    3106    3254    3094    3100    3101    3103
    3091    3086    3087    3085    3093    3097    3099    3102
    3087    3091    3092    3243    3090    3085    3089    3095
    3100    3103    3104    3253    3278    3280    3282    3285
    3084    3085    3087    3089    3279    3277    3281    3490
    3294    3278    3279    3277    2341    2348    2349    2504
    2340    2341    2343    2348    2500    2342    2343    2341
    2338    2342    2343    2499     829     831     833    1001
     832     831     833     857     839     835     836     829
     836     839     840    1003     830     829     831     836
    3454    3460    3612    3614    3454    3460    3612    3613
    3454    3460    3613    3614    3612    3460    3613    3614
     842     839     840     838    1021     861     862     858
    2505    2348    2349    2347    3453    3452    3454    3460
     857     858     860     862    3451    3450    3452    3457
    3450    3452    3454    3462    1016     833     857     858
    1015     833     857     858     858     857    1015    1016
     833     857    1015    1016     828     832     833     856
     834     829     830     828     836     835     837     834
     837     838     840     841    3455    3450    3451    3449
    2153    2003    2154    2155    1997    2003    2153    2155
    1997    2003    2153    2154    1997    2003    2154    2155
    2330    2334    2335    2497    2335    2338    2339    2342
    2339    2340    2341    2346    3450    3457    3458    3461
    3455    3456    3458    3608    2356    2355    2511    2512
    2354    2355    2356    2512    2354    2355    2511    2512
    2354    2355    2356    2511    2338    2334    2335    2333
    2357    2356    2513    2514    2355    2356    2357    2513
    2355    2356    2513    2514    2355    2356    2357    2514
    2566    2550    2551    2549     859     861     862    1020
    2346    2347    2349    2352    2337    2333    2336    2345
    2363    2364    2366    2516    2510    2351    2354    2355
    2355    2354    2509    2510    2351    2354    2509    2510
    2509    2351    2354    2355    2363    2358    2359    2357
    2356    2357    2359    2361    2331    2333    2335    2336
    2346    2350    2351    2506    2340    2346    2347    2350
    2336    2337    2339    2498    2550    2555    2556    2565
    2359    2363    2364    2515    2336    2345    2502    2503
    2336    2345    2501    2502    2336    2345    2501    2503
    2501    2345    2502    2503    2353    2350    2351    2354
    2340    2338    2339    2337    2555    2556    2558    2764
    3464    3457    3458    3456    2557    2561    2562    2563
    2561    2563    2564    2585    2524    2373    2374    2369
    2365    2369    2371    2374    2372    2373    2374    2377
    2373    2377    2378    2526    2366    2372    2373    2375
    2523    2370    2371    2369    2766    2563    2564    2554
    2552    2557    2558    2561    2564    2553    2554    2552
    2559    2557    2558    2556    2550    2552    2554    2557
    2549    2553    2554    2763    2584    2561    2562    2560
    2551    2549    2553    2762    2358    2365    2366    2369
    2377    2376    2378    2379    2378    2375    2376    2382
    2372    2375    2376    2525    2562    2584    2778    2779
    2358    2360    2362    2370    2372    2365    2366    2364
    2551    2550    2552    2555    2359    2358    2360    2365
     850     852     854    1010     846     849     851     853
     851     850     852     855     845     843     847     842
    2220    2197    2198    2196    1006     844     845     843
     844     846     848     849    2188    2193    2194    2197
    1009     850     851     849    1008     847     848     846
     845     844     846    1005    1012     853     854     852
    2196    2194    2195    2203    2193    2197    2198    2199
     843     847     848    1007    2195    2196    2198    2401
     849     853     854    1011    2198    2220    2414    2415
    1972    1973    1975    2134    2281    2277    2279    2322
    2280    2279    2281    2319    2276    2280    2281    2454
    2278    2277    2279    2282    2278    2276    2280    2257
    2479    2281    2319    2320    2281    2319    2478    2479
    2320    2319    2478    2479    2478    2281    2319    2320
    2480    2319    2320    2323    2321    2320    2323    2480
    2321    2320    2323    2319    2480    2319    2320    2321
    1976    1974    1975    1973    2320    2323    2324    2484
    2324    2323    2327    2484    2320    2323    2324    2327
    2320    2323    2327    2484    2483    2279    2322    2321
    2279    2322    2482    2483    2321    2322    2482    2483
    2482    2279    2322    2321    1982    1986    1987    2142
    2453    2277    2278    2276    2320    2321    2326    2481
    2322    2321    2326    2481    2320    2321    2322    2481
    2320    2321    2322    2326    1975    1976    1977    1982
    1989    1986    1987    1990    1972    1981    2138    2139
    2137    1981    2138    2139    1972    1981    2137    2138
    1972    1981    2137    2139    1976    1982    1983    1986
    2284    2283    2456    2282    2284    2283    2455    2456
    2455    2283    2456    2282    2284    2283    2455    2282
    1973    1969    1972    1981    2144    1988    1989    1987
    2136    1978    1979    1977    1982    1983    1985    1988
    1976    1977    1979    1984    1971    1974    1975    1978
    1983    1988    1989    2143    2944    2945    3140    3141
    2941    2945    3140    3141    3141    2944    2945    2941
    3140    2944    2945    2941    3006    3004    3008    2985
    2329    2328    2492    2493    2324    2328    2329    2493
    2324    2328    2329    2492    2324    2328    2492    2493
    2964    2963    2965    2973    3169    2987    3170    2986
    2988    2987    3169    3170    2988    2987    3170    2986
    2988    2987    3169    2986    2954    2953    2955    2958
    2940    2939    2941    2945    3165    2981    3166    3167
    2977    2981    3165    3166    2977    2981    3165    3167
    2977    2981    3166    3167    2324    2325    2326    2486
    2326    2325    2486    2487    2324    2325    2486    2487
    2324    2325    2326    2487    3181    3005    3006    3004
    2954    2952    2956    2947    2325    2324    2328    2485
    2323    2324    2328    2485    2323    2324    2325    2328
    2323    2324    2325    2485    2960    2956    2957    2955
    2975    2974    3162    3163    2973    2974    2975    3162
    2973    2974    2975    3163    2973    2974    3162    3163
    2956    2982    2983    2984    2977    2976    2978    2986
    2975    2979    2980    3164    2953    2955    2957    2959
    2974    2973    3160    3161    3161    2965    2973    2974
    3160    2965    2973    2974    2965    2973    3160    3161
    3004    3008    3009    3182    2985    2978    2980    2979
    2957    2952    2956    2982    2959    2964    2965    2960
    2974    2975    2977    2979    2976    2975    2977    2981
    2955    2959    2962    2964    2488    2325    2326    2321
    2321    2326    2488    2489    2325    2326    2488    2489
    2489    2325    2326    2321    1631    1635    1636    1787
    1635    1630    1631    1629    1634    1629    1633    1639
    1628    1629    1631    1633    1627    1628    1629    1786
    1629    1628    1785    1786    1627    1628    1629    1785
    1627    1628    1785    1786    1626    1627    1628    1784
    1628    1627    1783    1784    1626    1627    1783    1784
    1626    1627    1628    1783    1623    1626    1781    1782
    1782    1623    1626    1627    1781    1623    1626    1627
    1627    1626    1781    1782    1633    1639    1790    1791
    1633    1639    1789    1791    1633    1639    1789    1790
    1789    1639    1790    1791    1618    1622    1623    1778
    1633    1632    1634    1640    1625    1622    1623    1626
    1635    1636    1638    1788    2950    2933    2934    2932
    2923    2931    3133    3134    2923    2931    2932    3133
    2923    2931    2932    3134    2932    2931    3133    3134
    1634    1640    1792    1794    1634    1640    1793    1794
    1634    1640    1792    1793    1792    1640    1793    1794
    1644    1637    1638    1636    1631    1630    1632    1637
    1630    1632    1634    1642    2931    2932    2934    2936
    2934    2933    2935    2938    2919    2920    2922    3128
    2914    2919    2920    2929    2939    2933    2938    2951
    1816    1665    1666    1664    1768    1603    1604    1602
    2185    2189    2190    2399    1662    1664    1666    1814
    1977    1984    1985    2140    2141    1984    1985    1983
     526     527     529     532    1669    1662    1663    1664
     521     528     529     684    1773    1617    1774    1775
    1608    1617    1774    1775    1608    1617    1773    1774
    1608    1617    1773    1775    2187    2185    2189    2398
    2202    2186    2187    2185     685     528     529     527
    1608    1609    1611    1770    1661    1665    1666    1815
    1612    1610    1611    1609    1610    1606    1607    1605
    1604    1603    1605    1616    1662    1661    1663    1668
    1667    1668    1818    1819    1818    1663    1668    1667
    1663    1668    1818    1819    1819    1663    1668    1667
    1663    1661    1665    1616    1603    1605    1607    1608
    1607    1610    1611    1614    1609    1605    1608    1617
    1602    1606    1607    1769    2186    2188    2190    2193
    2187    2186    2188    2191    1968    1967    1969    1980
    1960    1964    2128    2129    1965    1964    2128    2129
    1960    1964    1965    2129    1960    1964    1965    2128
    1966    1970    1971    2133    1965    1966    1968    1970
    2132    1967    1968    1966    1966    1965    2130    2131
    1964    1965    1966    2130    1964    1965    1966    2131
    1964    1965    2130    2131    1974    1970    1971    1969
    2027    2025    2029    1980    1959    1960    1961    2121
    1959    1960    1961    1964    1961    1960    1964    2121
    1959    1960    1964    2121    1967    1969    1971    1972
    2314    2313    2471    2472    2289    2313    2471    2472
    2471    2289    2313    2314    2472    2289    2313    2314
    2284    2288    2289    2312    1960    1959    1963    2120
    1956    1959    1960    1963    1956    1959    1960    2120
    1956    1959    1963    2120    3407    3409    3410    3568
    2283    2284    2286    2288    1962    1961    2122    2123
    1960    1961    2122    2123    1960    1961    1962    2122
    1960    1961    1962    2123    1587    1589    1590    1748
    2288    2287    2289    2313     244      55      59      58
      56      58     242     243      59      58     242     243
      56      58      59     243      56      58      59     242
      57      55      59      54      58      56      57     241
    2026    2025    2027    2032    1974    1978    1979    2135
    2290    2285    2286    2284    2025    2029    2030    2179
    3152    2961    2962    2959    2180    2029    2030    2028
    1821    1825    1826    2035    2968    2967    2969    2972
    1470    1492    1686    1687    1833    1835    1836    1857
    2969    2972    3157    3158    2969    2972    3157    3159
    3157    2972    3158    3159    2969    2972    3158    3159
    3156    2967    2971    2970    2968    2970    3154    3155
    2968    2970    2971    3155    2971    2970    3154    3155
    2968    2970    2971    3154    2969    2967    2971    2966
    2038    1835    1836    1826    2962    2961    2963    3151
    2961    2963    2965    2966    2970    2968    2969    3153
    1836    1825    1826    1824    1475    1476    1478    1480
    1494    1477    1478    1476    1468    1466    1467    1475
    1478    1477    1479    1482    1467    1465    1466    1464
    1467    1468    1470    1673    1460    1465    1466    1469
    1476    1475    1677    1678    1467    1475    1476    1678
    1467    1475    1476    1677    1467    1475    1677    1678
    1465    1469    1470    1471    1458    1460    1462    1465
    1459    1458    1460    1463    1476    1480    1481    1679
    1463    1464    1466    1672    1458    1463    1464    1473
    1483    1477    1482    1495    1477    1479    1481    1484
    1680    1480    1481    1479    1485    1479    1484    1486
    1484    1483    1485    1489    1474    1458    1459    1457
    1472    1461    1462    1460    1492    1469    1470    1468
    1469    1471    1472    1493    1482    1495    1690    1691
    1482    1495    1691    1692    1690    1495    1691    1692
    1482    1495    1690    1692    1674    1471    1472    1462
    1500    1526    1527    1528    1482    1483    1485    1491
    1600    1601    1602    1767    1600    1601    1602    1766
    1600    1601    1766    1767    1602    1601    1766    1767
    1685    1488    1489    1485    1488    1489    1684    1685
    1684    1488    1489    1485    1485    1489    1684    1685
    1957    1958    2118    2119    2118    1915    1958    1957
    2119    1915    1958    1957    1915    1958    2118    2119
    1958    1957    1962    2117    1956    1957    1962    2117
    1956    1957    1958    1962    1956    1957    1958    2117
    1595    1596    1597    1600    1595    1596    1597    1757
    1595    1596    1600    1757    1597    1596    1600    1757
    1601    1602    1604    1606    1486    1487    1488    1683
    1486    1487    1599    1683    1599    1487    1488    1683
    1486    1487    1599    1488    1487    1488    1489    1490
    2125    1961    1962    1957    2124    1961    1962    1957
    1957    1962    2124    2125    1961    1962    2124    2125
    1596    1597    1758    1759    1596    1597    1598    1758
    1598    1597    1758    1759    1596    1597    1598    1759
    1601    1600    1764    1765    1596    1600    1601    1764
    1596    1600    1764    1765    1596    1600    1601    1765
    1592    1591    1750    1751    1751    1553    1591    1592
    1553    1591    1750    1751    1750    1553    1591    1592
    1487    1599    1762    1763    1595    1599    1762    1763
    1763    1595    1599    1487    1762    1595    1599    1487
    1593    1598    1760    1761    1761    1597    1598    1593
    1597    1598    1760    1761    1760    1597    1598    1593
    1594    1593    1598    1753    1592    1593    1594    1598
    1592    1593    1598    1753    1592    1593    1594    1753
    1752    1591    1592    1595    1593    1592    1595    1591
    1752    1591    1592    1593    1593    1592    1595    1752
    2116    1955    1956    1957    1957    1956    1959    2116
    2116    1955    1956    1959    1957    1956    1959    1955
    1592    1595    1596    1599    1592    1595    1596    1756
    1592    1595    1599    1756    1596    1595    1599    1756
    1682    1484    1486    1487    1487    1486    1681    1682
    1484    1486    1681    1682    1681    1484    1486    1487
    1552    1551    1553    1591    1841    1843    1845    1848
    2049    1852    1853    1849    1852    1853    2048    2049
    2048    1852    1853    1849    1849    1853    2048    2049
    1851    1852    1853    1854    1862    1860    1864    1855
    1848    1847    1849    1853    1846    1847    1849    1855
    1849    1843    1848    1850    2057    1861    1862    1860
    1847    1841    1846    1859    2044    1844    1845    1843
    1851    1850    2045    2046    2046    1848    1850    1851
    1848    1850    2045    2046    2045    1848    1850    1851
    1842    1841    1843    1846    3363    3366    3541    3543
    3541    3366    3542    3543    3363    3366    3542    3543
    3363    3366    3541    3542    1850    1851    1963    1852
    1850    1851    1852    2047    1850    1851    1963    2047
    1963    1851    1852    2047    1865    1860    1864    1890
    1840    1844    1845    2043      50      49      51     239
    1862    1861    1863    1866    1959    1963    2126    2127
    1851    1963    2126    2127    2127    1959    1963    1851
    2126    1959    1963    1851    1846    1859    2054    2055
    1846    1859    2054    2056    2054    1859    2055    2056
    1846    1859    2055    2056    1858    1841    1842    1840
    1864    1890    1891    1892      49      51      53      54
    3408    3407    3409    3566    3408    3407    3409    3565
    3409    3407    3565    3566    3408    3407    3565    3566
    1839    1840    1842    1844    1829    1833    1834    1835
    1823    1821    1825    2034      56      55      57      60
    1823    1822    1824    1827      94      93      95      98
    1832    1830    1831    1839    1824    1829    1830    1833
    1822    1824    1826    1829    1822    1827    1828    1837
    1831    1829    1830    1828      57      60     245     246
      57      60     246     247     245      60     246     247
      57      60     245     247    1831    1839    1840    2041
    1831    1839    2041    2042    1831    1839    1840    2042
    1840    1839    2041    2042    1827    1828    1830    2036
    1506    1505    1507    1695     269      93      94      92
    1838    1822    1823    1821      94      92      96      73
     772     798     799     800    1497    1499    1501    1503
    1498    1497    1499    1502    1693    1497    1498    1496
    1498    1496    1500    1491    1499    1503    1506    1508
    1504    1500    1501    1499    1503    1508    1509    1504
     100     104     105     128    3335    3334    3518    3519
    3332    3334    3518    3519    3332    3334    3335    3519
    3332    3334    3335    3518     105     129     287     288
     130     129     287     288     288     105     129     130
     287     105     129     130     271      99     272      98
     100      99     272      98     100      99     271      98
     100      99     271     272     129     130     132     134
    1501    1496    1500    1526     291     130     132     131
     131     133     134     292     293     133     134     130
    1696    1505    1506    1503     132     131     133     289
     132     131     289     290     132     131     133     290
     133     131     289     290     104     103     105     129
    3520    3331    3335    3334      99     100     102     104
    1917    1913    1915    1958    1716    1536    1537    1535
    1543    1546    1722    1723    1543    1546    1721    1723
    1543    1546    1721    1722    1721    1546    1722    1723
    1532    1536    1537    1715    1956    1955    2114    2115
    1917    1955    2114    2115    2114    1917    1955    1956
    2115    1917    1955    1956    1541    1542    1544    1545
    1539    1541    1542    1718    1920    1919    2091    2092
    2091    1919    2092    1918    1920    1919    2092    1918
    1920    1919    2091    1918    1534    1533    1535    1538
    1531    1532    1534    1536    1719    1543    1544    1542
    1547    1533    1534    1532    1912    1916    1917    2090
    1533    1538    1539    1717    1544    1540    1543    1546
    1533    1535    1537    1540    1543    1539    1540    1535
    1916    1915    1917    1955    1540    1539    1541    1538
    1914    1912    1916    1893     801     794     796     795
     791     795     796     980     792     791     793     797
     981     797     982     983     793     797     981     982
     793     797     981     983     793     797     982     983
     793     792     794     802     790     791     793     795
     804     803     985     986     985     803     986     802
     804     803     985     802     804     803     986     802
     785     783     787     782     804     808     809     987
     803     804     806     808    1861    1863    1865    1867
    3026    3023    3024    3022     785     788     974     975
     785     788     973     974     785     788     973     975
     973     788     974     975     784     783     785     788
    1868    1864    1865    1863     789     790     978     979
     791     790     978     979     789     790     791     978
     789     790     791     979    3021    3022    3024    3025
    3057    3058    3060    3062     778     777     779     967
     777     779     781     782     977     781     789     790
     790     789     976     977     976     781     789     790
     781     789     976     977     771     775     778     780
     972     783     787     786    3118    3117    3119    3124
     773     768     772     798    3060    3059    3061    3072
     775     780     781     776     776     772     773     771
    3117    3121    3122    3271    3125    3118    3119    3120
    3224    3059    3060    3058    3118    3120    3122    3270
     780     779     781     789    3119    3117    3121    3072
    3272    3121    3122    3120    3274    3119    3124    3123
    3275    3119    3124    3123    3119    3124    3274    3275
    3123    3124    3274    3275      97      93      95     138
     298      95     138     137     299      95     138     137
     137     138     298     299      95     138     298     299
    3064    3065    3067    3226    3065    3061    3064    3073
    3064    3073    3229    3231    3064    3073    3229    3230
    3064    3073    3230    3231    3229    3073    3230    3231
     102     101     103     108    3074    3078    3079    3234
    3068    3066    3067    3065     111     107     108     101
     108     111     112     275     106     101     102     100
    3068    3074    3075    3078     101     103     105     273
    3521    3336    3522    3523    3333    3336    3521    3523
    3333    3336    3522    3523    3333    3336    3521    3522
    3066    3062    3063    3061    3059    3061    3063    3064
    3067    3068    3069    3074    3332    3331    3333    3336
    3058    3062    3063    3225    3333    3331    3335    3330
     117     115     119     114     115     119     120     279
     114     111     112     110    3334    3332    3333    3517
     108     107     109     106     988     808     809     807
    1863    1867    1870    1872     806     805     807     810
    1867    1872    1873    1868    1877    1880    2066    2067
    2065    1880    2066    2067    1877    1880    2065    2066
    1877    1880    2065    2067    3236    3080    3081    3079
     819     805     806     804    1869    1871    1873    1874
    1878    1876    1877    2061    3081    3078    3079    3082
    3083    3082    3237    3238    3238    3079    3082    3083
    3079    3082    3237    3238    3237    3079    3082    3083
    2064    1875    1879    1878    3075    3080    3081    3235
    1870    1869    1871    2059    1872    1871    1873    1881
    1876    1875    1877    1880    3083    3084    3241    3242
    3083    3084    3085    3242    3085    3084    3241    3242
    3083    3084    3085    3241    1877    1875    1879    1874
     805     807     809     812    3082    3083    3084    3240
    3084    3083    3239    3240    3082    3083    3239    3240
    3082    3083    3084    3239    2060    1869    1870    1867
    1873    1881    2068    2069    2069    1873    1881    1882
    2068    1873    1881    1882    1882    1881    2068    2069
    1876    1878    2062    2063    1876    1878    1879    2062
    1879    1878    2062    2063    1876    1878    1879    2063
     815     811     812     807    3074    3075    3077    3080
    2205    2207    2209    2212    2409    2212    2214    2215
    2215    2214    2409    2410    2410    2212    2214    2215
    2212    2214    2409    2410    2206    2205    2207    2210
    2213    2207    2212    2214    2211    2205    2210    2223
    2412    2216    2217    2213    2213    2217    2412    2413
    2413    2216    2217    2213    2216    2217    2412    2413
    2226    2224    2228    2219    2229    2224    2228    2254
    2228    2254    2255    2256    2210    2211    2213    2219
    2215    2216    2217    2218    2212    2211    2213    2217
    2408    2208    2209    2207     786     784     785     969
    2214    2215    2327    2216    2214    2215    2216    2411
    2327    2215    2216    2411    2214    2215    2327    2411
    2421    2225    2226    2224    3019    3021    3022    3186
    3020    3019    3021    3018    2210    2223    2419    2420
    2210    2223    2418    2419    2210    2223    2418    2420
    2418    2223    2419    2420    1019     858     860     859
    3012    3011    3183    3010    3012    3011    3184    3010
    3183    3011    3184    3010    3012    3011    3183    3184
    2222    2205    2206    2204    2204    2208    2209    2407
    2215    2327    2490    2491    2323    2327    2490    2491
    2491    2323    2327    2215    2490    2323    2327    2215
    2232    2228    2229    2227    2987    2988    2990    2992
    3276    3118    3125    3123     784     786     787     970
     787     786     970     971     784     786     970     971
     784     786     787     971    3003    2989    2990    2988
    3124    3123    3125    3273    3009    3047    3206    3207
    3048    3047    3206    3207    3207    3009    3047    3048
    3206    3009    3047    3048    3056    3057    3058    3223
    3056    3057    3058    3222    3056    3057    3222    3223
    3058    3057    3222    3223    3219    3051    3055    2943
    2943    3055    3218    3219    3051    3055    3218    3219
    3218    3051    3055    2943    3008    3007    3009    3047
    3006    3005    3007    3010     861     859    1017    1018
     860     859    1017    1018     860     859     861    1018
     860     859     861    1017    3009    3005    3007    3050
    2943    2944    2945    2946    2941    2935    2940    2942
    3048    3051    3055    3212    3052    3051    3055    3212
    3048    3051    3052    3055    3048    3051    3052    3212
    3053    3052    3056    3213    3051    3052    3053    3056
    3051    3052    3053    3213    3051    3052    3056    3213
    3052    3056    3057    3220    3052    3056    3220    3221
    3057    3056    3220    3221    3052    3056    3057    3221
    2942    2943    2944    3139    2942    2943    3055    3139
    2942    2943    3055    2944    3055    2943    2944    3139
    3048    3049    3054    3209    3048    3049    3050    3054
    3050    3049    3054    3209    3048    3049    3050    3209
    3049    3048    3051    3047    3049    3048    3051    3208
    3208    3047    3048    3051    3208    3047    3048    3049
    3217    3053    3054    3049    3216    3053    3054    3049
    3049    3054    3216    3217    3053    3054    3216    3217
    3052    3053    3214    3215    3052    3053    3054    3215
    3052    3053    3054    3214    3054    3053    3214    3215
    3137    2940    2942    2943    2940    2942    3137    3138
    2943    2942    3137    3138    3138    2940    2942    2943
    3007    3050    3210    3211    3049    3050    3210    3211
    3210    3007    3050    3049    3211    3007    3050    3049
     121     125     126     283     118     121     123     125
     116     118     120     121     284     125     126     124
     281     122     123     121     117     116     118     277
    3069    3076    3077    3232    3228    3070    3071    3069
    3136    2936    2937    2935     122     124     126     282
    2923    2924    2926    3129    2932    2936    2937    3135
     123     122     124     127    2916    2921    2922    2925
    2914    2916    2918    2921    3068    3069    3071    3076
     278     116     117     115    2915    2914    2916    2919
    3066    3070    3071    3227     280     119     120     118
    3172    2992    2993    2991    2930    2914    2915    2913
    2989    2991    2993    2996    2915    2913    2917    3126
    2923    2921    2922    2920    2988    2992    2993    3171
    2933    2935    2937    2940    2924    2922    2923    2931
    3063    3066    3067    3070    3233    3076    3077    3075
    2195    2193    2194    2192    2926    2948    3142    3143
    2921    2925    2926    2927    2948    2925    2926    2924
    3130    2927    2928    2918    2191    2192    2194    2400
     811     813     814     990     813     814     816     817
    2928    2917    2918    2916    2913    2917    2918    3127
    2186    2191    2192    2201     527     532     533     687
    2925    2927    2928    2949     812     811     813     810
    2204    2203    2405    2406    2195    2203    2405    2406
    2195    2203    2204    2405    2195    2203    2204    2406
    2203    2204    2206    2208     805     810     811     989
     503     507     670     671     671     503     507     395
     670     503     507     395     395     507     670     671
     196     202     354     355     355     201     202     196
     201     202     354     355     354     201     202     196
     200     201     352     353     202     201     352     353
     200     201     202     353     200     201     202     352
    2249    2248    2250    2258    2246    2247    2249    2251
    2260    2259    2441    2442    2441    2259    2442    2258
    2260    2259    2441    2258    2260    2259    2442    2258
     199     200     201     203     201     200     351     203
     199     200     351     203     199     200     201     351
     395     396     397     398     501     500     503     660
     501     500     503     499     660     499     500     503
     660     499     500     501    2248    2247    2249    2253
     505     504     508     665     503     504     505     508
     503     504     505     665     503     504     508     665
    2247    2251    2252    2436     195     196     197     344
     195     196     197     202     197     196     202     344
     195     196     202     344    2247    2246    2434    2435
    2245    2246    2434    2435    2245    2246    2247    2435
    2245    2246    2247    2434     500     503     504     507
     500     503     504     664     500     503     507     664
     504     503     507     664    1224    1223    1225    1381
    1225    1223    1381    1382    1224    1223    1225    1382
    1224    1223    1381    1382    2259    2260    2262    2264
     393     397     592     593     592     396     397     393
     396     397     592     593     593     396     397     393
    2249    2253    2437    2439    2249    2253    2437    2438
    2249    2253    2438    2439    2437    2253    2438    2439
    1223    1225    1226    1384     196     197     198     345
     198     197     345     346     196     197     345     346
     196     197     198     346    2260    2264    2265    2443
     343     194     195     196     196     195     199     194
     196     195     199     343     343     194     195     199
     500     499     658     659     461     499     658     659
     659     461     499     500     658     461     499     500
     504     505     506     667     504     505     506     666
     504     505     666     667     506     505     666     667
     195     199     349     350     195     199     200     350
     195     199     200     349     200     199     349     350
     507     395     396     591     394     395     507     591
     394     395     507     396     394     395     396     591
    2257    2250    2252    2251    1305    1298    1299    1300
     188     181     182     180    2747    2748    2749    2899
    2749    2748    2899    2751    2747    2748    2899    2751
    2747    2748    2749    2751    1304    1303    1305    1453
    1456    1298    1305    1303    1298    1297    1299    1304
     175     179     180     331    2292    2291    2293    2290
    2748    2749    2750    2900    2748    2749    2900    2901
    2748    2749    2750    2901    2750    2749    2900    2901
     182     188     189     191    2291    2293    2294    2458
     189     193     194     342     188     191     192     341
     194     191     192     198    2293    2294    2296    2297
     179     180     182     332     197     198     347     348
     347     192     198     197     192     198     347     348
     348     192     198     197    2902    2749    2750    2744
    2903    2749    2750    2744    2749    2750    2902    2903
    2744    2750    2902    2903    1303    1304    1454    1455
    1454    1299    1304    1303    1455    1299    1304    1303
    1299    1304    1454    1455     193     192     194     195
     188     189     190     193    2895    2740    2746    2745
    2740    2746    2895    2896    2896    2740    2746    2745
    2745    2746    2895    2896    2746    2745    2893    2894
    2744    2745    2746    2893    2744    2745    2893    2894
    2744    2745    2746    2894    1938    1941    1943    1945
    2743    2744    2750    2892    2743    2744    2745    2892
    2743    2744    2745    2750    2745    2744    2750    2892
    2101    1942    1943    1941    2104    1945    1946    1944
    1941    1945    1946    2103    1943    1942    1944    1947
    1618    1619    1621    1624    1619    1624    1625    1779
    1777    1620    1621    1619    2891    2742    2743    2747
    2744    2743    2747    2891    2891    2742    2743    2744
    2744    2743    2747    2742    1936    1938    1940    1941
    2742    2739    2740    2746    1937    1936    1938    2097
    1942    1944    1946    2102    2748    2747    2897    2898
    2743    2747    2897    2898    2743    2747    2748    2898
    2743    2747    2748    2897    2100    1939    1940    1938
    2741    2740    2742    2743    2736    2739    2740    2889
    2098    1936    1937    1935    1780    1624    1625    1623
    1611    1612    1613    1618    1613    1620    1621    1776
    1612    1618    1619    1622     520     526     527     530
     519     520     521     526     504     508     509     673
     509     508     672     673     504     508     672     673
     504     508     509     672     520     521     523     528
    1610    1614    1615    1771     680     522     523     521
     520     518     519     517     676     511     512     510
     515     518     519     522    1772    1614    1615    1613
     510     514     515     677     512     511     513     524
     681     525     682     683     516     525     682     683
     516     525     681     682     516     525     681     683
    1612    1613    1615    1620     518     522     523     679
     509     510     512     514     518     514     515     513
     508     509     674     675     510     509     674     675
     508     509     510     675     508     509     510     674
     517     513     516     525     511     513     515     516
     516     517     519     678    1194    1193    1195    1200
    1193    1195    1197    1365    2316    2315    2473    2474
    2316    2315    2317    2474    2316    2315    2317    2473
    2317    2315    2473    2474    2315    2317    2318    2476
    2477    2317    2318    2314    1221    1222    1224    1226
    1383    1222    1224    1223    1379    1197    1221    1222
    1380    1197    1221    1222    1222    1221    1379    1380
    1197    1221    1379    1380    1196    1195    1197    1221
    2475    2314    2316    2315    1203    1199    1200    1193
    2275    2261    2262    2260    2313    2314    2316    2318
    1198    1193    1194    1192    2444    2264    2265    2263
    2262    2261    2263    2266    1200    1203    1204    1367
    2261    2263    2265    2268     501     502     662     663
     662     459     502     501     663     459     502     501
     459     502     662     663    2285    2287    2289    2457
     669     505     506     501     505     506     668     669
     668     505     506     501     501     506     668     669
    1298    1300    1302    1450    2305    2309    2310    2467
    1192    1196    1197    1220    1385    1225    1226    1222
    2292    2295    2296    2459    2286    2285    2287    2292
    2299    2303    2304    2463    1361    1185    1186    1184
    2465    2306    2307    2305    1186    1184    1188    1165
    2298    2295    2296    2294    2464    2303    2304    2302
    2301    2300    2302    2461    1452    1301    1302    1300
    1186    1185    1187    1190    2462    2300    2301    2299
    1191    1192    1194    1196    2301    2299    2303    2298
    2300    2302    2304    2305    1363    1191    1364    1190
    1192    1191    1364    1190    1192    1191    1363    1364
    1192    1191    1363    1190     249      53      61      62
     248      53      61      62      62      61     248     249
      53      61     248     249    2302    2305    2307    2309
    2295    2291    2292    2285    1184    1188    1189    1362
    1148    1150    1151    1335    1151    1150    1334    1335
    1148    1150    1151    1334    1148    1150    1334    1335
    1150    1148    1149    1333    1340    1145    1153    1154
    1145    1153    1340    1341    1341    1145    1153    1154
    1154    1153    1340    1341    1149    1147    1151    1146
    1141    1143    1145    1146    1142    1141    1143    1331
    1144    1143    1145    1153    1148    1147    1149    1152
    1149    1152    1338    1339    1149    1152    1337    1338
    1149    1152    1337    1339    1337    1152    1338    1339
    1336    1147    1151    1150    1332    1141    1142    1139
    1139    1144    1145    1140    1921    1923    1925    2093
    1155    1159    1160    1344    1153    1154    1342    1343
    1153    1154    1155    1342    1153    1154    1155    1343
    1155    1154    1342    1343    1165    1158    1160    1159
    1154    1155    1157    1159    2468    2309    2310    2308
    1922    1921    1923    1928    1937    1935    1939    1934
    1924    1923    1925    1949    1135    1139    1142    1144
    1935    1939    1940    2099    2272    2268    2271    2274
    1929    1930    1932    1933    1927    1929    1930    2094
    2271    2274    2450    2451    2271    2274    2449    2451
    2271    2274    2449    2450    2449    2274    2450    2451
    1928    1931    1932    2095    2268    2267    2269    2266
    1919    1920    1922    1924    2261    2266    2267    2445
    1274    1280    1281    1283    1934    1931    1932    1930
    2271    2267    2268    2263    1928    1927    1929    1926
    1931    1927    1928    1921    1926    1921    1922    1920
    1267    1271    1272    1423    1280    1273    1274    1272
    1271    1272    1274    1424    2269    2270    2272    2273
    1280    1283    1284    1433    2447    2271    2272    2270
    2267    2269    2270    2446    1271    1266    1267    1265
    1908    1904    1907    1910    1898    1897    1899    1902
    1897    1902    1903    2081    1897    1899    1901    1904
    1907    1903    1904    1899    2080    1900    1901    1899
    1904    1903    1905    1902    1911    1897    1898    1896
    1895    1896    1898    1900    1896    1900    1901    2079
    2083    1907    1908    1906      26      39     234     235
     234      39     235     236      26      39     234     236
      26      39     235     236      42      41      43      46
     237      41      42      40      41      43      45      47
    2077    1895    2078    1894    1896    1895    2078    1894
    1896    1895    2077    1894    1896    1895    2077    2078
      43      47      50      52    1209    1208    1210    1369
    1370    1208    1209    1207    1903    1905    1906    2082
    1905    1906    1908    1909     240      49      50      47
    1907    1910    2086    2087    2085    1910    2086    2087
    1907    1910    2085    2087    1907    1910    2085    2086
      26      27      29      35    1208    1210    1212    1213
      42      40      44      35    2307    2306    2308    2311
      96      95      97     135      65      69     253     255
      65      69     253     254     253      69     254     255
      65      69     254     255      75      76      78      80
     260      80      81      79      52      51      53      61
      63      67      68     252      44      70      71      72
      48      44      45      43      76      80      81     259
     257      75     258      74      76      75     257     258
      76      75     258      74      76      75     257      74
      47      52      53      48      65      64      66      74
      45      40      44      70      62      63      65      67
      73      66      68      67    2607    2606    2790    2791
    2604    2606    2790    2791    2604    2606    2607    2791
    2604    2606    2607    2790      92      96      97     270
      64      63      65      69      63      62     250     251
      61      62     250     251      61      62      63     250
      61      62      63     251      78      77      79      82
      77      82      83     261    1949    1950    1952    1954
    1951    1953    1954    2112    2113    1953    1954    1950
    2111    1950    1952    1951    1952    1951    1953    2109
    1952    1951    1953    2110    1952    1951    2109    2110
    1953    1951    2109    2110      91      77      78      76
      77      79      81      84    1157    1161    1345    1347
    1157    1161    1345    1346    1345    1161    1346    1347
    1157    1161    1346    1347    1920    1924    1925    1948
    2306    2308    2310    2466    1156    1155    1157    1161
    2108    1925    1949    1950    2107    1925    1949    1950
    1950    1949    2107    2108    1925    1949    2107    2108
    1157    1156    1158    1166      84      83      85      82
    1291    1292    1443    1295    1293    1292    1443    1295
    1291    1292    1293    1443    1291    1292    1293    1295
    1292    1291    1441    1442    1287    1291    1441    1442
    1287    1291    1292    1441    1287    1291    1292    1442
      87      83      84      79    1292    1293    1444    1445
    1292    1293    1294    1445    1294    1293    1444    1445
    1292    1293    1294    1444    1883    1887    1888    2072
    1373    1214    1215    1213    1446    1293    1294    1288
    1447    1293    1294    1288    1288    1294    1446    1447
    1293    1294    1446    1447    1280    1281    1282    1285
    2832    2673    2674    2672    1885    1884    1886    1894
    2666    2669    2671    2673    1287    1288    1294    1436
    1289    1288    1294    1436    1287    1288    1289    1294
    1287    1288    1289    1436    1372    1211    1212    1210
    1289    1290    1439    1440    1439    1284    1290    1289
    1284    1290    1439    1440    1440    1284    1290    1289
    1210    1213    1215    1217    1214    1216    1218    1374
    1288    1289    1290    1437    1288    1289    1290    1438
    1290    1289    1437    1438    1288    1289    1437    1438
    1893    1886    1888    1887    2670    2672    2674    2830
    1281    1285    1286    1434    1435    1286    1287    1291
    1435    1286    1287    1288    1288    1287    1291    1286
    1288    1287    1291    1435    1914    1913    1915    1918
    2089    1913    1914    1912    1215    1214    1216    1219
    2669    2673    2674    2831    1286    1283    1284    1290
    1213    1217    1218    1375    1376    1217    1218    1216
    1285    1284    1286    1287      22      21      23      26
    3193    3034    3035    3033    3030    3033    3035    3037
    3028    3030    3032    3033    3029    3028    3030    3189
    3190    3028    3029    3027      20      24      25     223
      38      21      22      20      19      20      22      24
    3035    3034    3036    3039       7       8      10     216
    3192    3031    3032    3030     212     211     213     361
      21      23      25      28    3033    3037    3038    3195
     224      24      25      23      27      21      26      39
      11      19     221     222      11      19      20     222
      11      19      20     221      20      19     221     222
    3034    3036    3038    3194    3027    3031    3032    3191
    3196    3037    3038    3036    1885    1889    2073    2075
    1885    1889    2074    2075    2073    1889    2074    2075
    1885    1889    2073    2074    3029    3027    3031    3026
     364     206     213     211      11       9      10       8
     145     146     148     150    2621    2614    2616    2615
     305     141     142     137     304     141     142     137
     137     142     304     305     141     142     304     305
    2642    2641    2643    2646      31      32      33      34
     140     139     143     300     136     139     143     300
     136     139     140     143     136     139     140     300
      28      30     225     226     225      28      30      31
     226      28      30      31      31      30     225     226
      32      33     228     229     228      32      33      29
      29      33     228     229     229      32      33      29
     139     143     306     307     307     139     143      31
     306     139     143      31      31     143     306     307
     146     145     310     311     144     145     146     310
     144     145     146     311     144     145     310     311
     296     135     136     139     296     135     136     137
     137     136     139     296     137     136     139     135
     294      97     135     136      97     135     294     295
     136     135     294     295     295      97     135     136
      30      31     143     227     143      31      32     227
      30      31      32     227      30      31     143      32
    2642    2640    2644    2621     140     141     142     303
     140     141     142     302     142     141     302     303
     140     141     302     303     138     137     142     297
     136     137     142     297     136     137     138     142
     136     137     138     297     141     140     144     301
     139     140     141     144     139     140     141     301
     139     140     144     301     140     144     308     309
     145     144     308     309     140     144     145     308
     140     144     145     309      28      27      29      33
      29      23      28      30     146     150     151     313
    2817    2641    2642    2640    2650    2649    2651    2656
    2648    2652    2653    2676    2649    2651    2653    2821
    2652    2651    2653    2677    2647    2648    2650    2652
    2654    2649    2650    2648    2659    2655    2656    2649
    2656    2655    2657    2654    2656    2659    2660    2823
     109     110     112     113    2657    2658    2660    2661
    2655    2657    2658    2822    2847    2643    2686    2685
    2846    2643    2686    2685    2643    2686    2846    2847
    2685    2686    2846    2847     107     109     110     274
    2819    2647    2820    2646    2648    2647    2819    2820
    2648    2647    2819    2646    2648    2647    2820    2646
    2836    2653    2677    2678    2678    2677    2835    2836
    2835    2653    2677    2678    2653    2677    2835    2836
    2662    2659    2660    2658    2677    2678    2680    2682
    2645    2641    2643    2686    2663    2667    2668    2827
    2829    2670    2671    2669     700     548     701     702
     542     548     701     702     542     548     700     702
     542     548     700     701    2664    2666    2668    2669
    2665    2663    2667    2662     545     549     551     554
    2828    2667    2668    2666    3640    3482    3489    3487
     815     818     993     994     993     818     994     995
     815     818     993     995     815     818     994     995
    3638    3483    3488    3487    3487    3488    3638    3639
    3639    3483    3488    3487    3483    3488    3638    3639
    2826    2664    2665    2663     704     553     554     549
     540     550     551     568    2665    2664    2666    2825
    1881    1882    1883    2070    1883    1882    2070    2071
    1881    1882    2070    2071    1881    1882    1883    2071
     703     550     551     549    1882    1883    1885    1887
    3488    3487    3489    3637     816     812     815     818
    1884    1883    1885    1889    3012    3016    3017    3040
    3013    3015    3017    3185    3199    3017    3041    3042
    3042    3041    3199    3200    3200    3017    3041    3042
    3017    3041    3199    3200    3041    3042    3044    3046
    3016    3015    3017    3041    3014    3013    3015    3020
    3203    3042    3044    3043    3205    3045    3046    3042
    3043    3045    3046    3204       3       2       4       7
    2225    2227    2229    2231      18       2       3       1
       3       1       5     214    3045    3043    3201    3202
    3044    3043    3045    3201    3044    3043    3045    3202
    3044    3043    3201    3202    2227    2231    2234    2236
    3011    3012    3014    3016    3023    3019    3020    3013
    3018    3013    3014    3012       2       7       8      17
    2243    2242    2426    2427    2240    2242    2243    2426
    2240    2242    2426    2427    2240    2242    2243    2427
    2226    2225    2227    2230    2428    2239    2243    2242
    3020    3023    3024    3187    2424    2233    2234    2231
    2231    2236    2237    2232     360     209     210     208
     174     176     178     186     181     185     187     190
     179     174     175     173     148     147     149     160
     213     206     207     208     206     208     210     358
     339     186     187     185     151     154     155     158
     312     147     148     146     154     150     151     149
     176     186     187     204     206     205     207     212
     175     174     176     181     152     161     317     319
     152     161     317     318     152     161     318     319
     317     161     318     319     147     149     151     152
     211     212     362     363     207     212     362     363
     362     207     212     211     363     207     212     211
     153     149     152     161    2990    2989    2991    2994
    2989    2994    2995    3173     340     189     190     185
     174     181     182     185     207     205     209     160
     205     209     210     359    2888    2737    2738    2733
    2736    2729    2730    2728    2729    2733    2735    2738
    2887    2734    2735    2733    3175    2999    3000    2998
    2997    2998    3000    3001    2722    2729    2730    2733
    2724    2734    2735    2752    2736    2737    2738    2741
     178     184     336     338     178     184     336     337
     178     184     337     338     336     184     337     338
     178     173     177     183    2737    2741    2742    2890
    2730    2736    2737    2739    2727    2728    2730    2880
     172     173     175     177     177     176     178     184
    3000    2996    2999    3002    2999    2995    2996    2991
    2999    3002    3177    3179    2999    3002    3177    3178
    2999    3002    3178    3179    3177    3002    3178    3179
    2996    2995    2997    2994    2995    2997    2998    3174
    2723    2722    2724    2729    2722    2724    2726    2734
     333     183     334     335     177     183     333     335
     177     183     333     334     177     183     334     335
    2839    2678    2680    2679    2723    2727    2728    2879
    2727    2722    2723    2721    2725    2724    2726    2732
     171     172     329     330     173     172     329     330
     171     172     173     330     171     172     173     329
     534     535     536     691     536     535     691     692
     534     535     536     692     534     535     691     692
     538     540     542     550    2242    2240    2241    2425
     991     815     816     814    2241    2244    2430    2431
    2429    2244    2430    2431    2241    2244    2429    2431
    2241    2244    2429    2430     541     547     697     698
     697     547     698     699     541     547     697     699
     541     547     698     699     533     530     531     534
     688     532     533     531    2726    2732    2885    2886
    2884    2732    2885    2886    2726    2732    2884    2885
    2726    2732    2884    2886    2726    2721    2725    2731
     526     530     531     686    2233    2235    2237    2238
     539     543     544     695     543     544     546     696
    2720    2721    2723    2725    2241    2239    2243    2238
     539     538     540     545    2234    2233    2235    2423
     552     553     554     557    2433    2237    2245    2246
    2237    2245    2432    2433    2246    2245    2432    2433
    2432    2237    2245    2246     538     545     546     549
     542     537     541     547    2236    2235    2237    2245
     536     537     539     541     552     545     546     544
     543     538     539     537     531     534     689     690
     535     534     689     690     689     531     534     535
     690     531     534     535     546     552     553     555
     535     536     693     694     537     536     693     694
     535     536     537     694     535     536     537     693
    2240    2239    2241    2244     541     540     542     548

       0 !NDON: donors


       0 !NACC: acceptors


       0 !NNB

       0       0       0       0       0       0       0       0
       0       0       0       0       0       0       0       0
       0       0       0       0       0       0       0       0
       0       0       0       0       0       0       0       0
       0       0       0       0       0       0       0       0
       0       0       0       0       0       0       0       0
       0       0       0       0       0       0       0       0
       0       0       0       0       0       0       0       0
       0       0       0       0       0       0       0       0
       0       0       0       0       0       0       0       0
       0       0       0       0       0       0       0       0
       0       0       0       0       0       0       0       0
       0       0       0       0       0       0       0       0
       0       0       0       0       0       0       0       0
       0       0       0       0       0       0       0       0
       0       0       0       0       0       0       0       0
       0       0       0       0       0       0       0       0
       0       0       0       0       0       0       0       0
       0       0       0       0       0       0       0       0
       0       0       0       0       0       0       0       0
       0       0       0       0       0       0       0       0
       0       0       0       0       0       0       0       0
       0       0       0       0       0       0       0       0
       0       0       0       0       0       0       0       0
       0       0       0       0       0       0       0       0
       0       0       0       0       0       0       0       0
       0       0       0       0       0       0       0       0
       0       0       0       0       0       0       0       0
       0       0       0       0       0       0       0       0
       0       0       0       0       0       0       0       0
       0       0       0       0       0       0       0       0
       0       0       0       0       0       0       0       0
       0       0       0       0       0       0       0       0
       0       0       0       0       0       0       0       0
       0       0       0       0       0       0       0       0
       0       0       0       0       0       0       0       0
       0       0       0       0       0       0       0       0
       0       0       0       0       0       0       0       0
       0       0       0       0       0       0       0       0
       0       0       0       0       0       0       0       0
       0       0       0       0       0       0       0       0
       0       0       0       0       0       0       0       0
       0       0       0       0       0       0       0       0
       0       0       0       0       0       0       0       0
       0       0       0       0       0       0       0       0
       0       0       0       0       0       0       0       0
       0       0       0       0       0       0       0       0
       0       0       0       0       0       0       0       0
       0       0       0       0       0       0       0       0
       0       0       0       0       0       0       0       0
       0       0       0       0       0       0       0       0
       0       0       0       0       0       0       0       0
       0       0       0       0       0       0       0       0
       0       0       0       0       0       0       0       0
       0       0       0       0       0       0       0       0
       0       0       0       0       0       0       0       0
       0       0       0       0       0       0       0       0
       0       0       0       0       0       0       0       0
       0       0       0       0       0       0       0       0
       0       0       0       0       0       0       0       0
       0       0       0       0       0       0       0       0
       0       0       0       0       0       0       0       0
       0       0       0       0       0       0       0       0
       0       0       0       0       0       0       0       0
       0       0       0       0       0       0       0       0
       0       0       0       0       0       0       0       0
       0       0       0       0       0       0       0       0
       0       0       0       0       0       0       0       0
       0       0       0       0       0       0       0       0
       0       0       0       0       0       0       0       0
       0       0       0       0       0       0       0       0
       0       0       0       0       0       0       0       0
       0       0       0       0       0       0       0       0
       0       0       0       0       0       0       0       0
       0       0       0       0       0       0       0       0
       0       0       0       0       0       0       0       0
       0       0       0       0       0       0       0       0
       0       0       0       0       0       0       0       0
       0       0       0       0       0       0       0       0
       0       0       0       0       0       0       0       0
       0       0       0       0       0       0       0       0
       0       0       0       0       0       0       0       0
       0       0       0       0       0       0       0       0
       0       0       0       0       0       0       0       0
       0       0       0       0       0       0       0       0
       0       0       0       0       0       0       0       0
       0       0       0       0       0       0       0       0
       0       0       0       0       0       0       0       0
       0       0       0       0       0       0       0       0
       0       0       0       0       0       0       0       0
       0       0       0       0       0       0       0       0
       0       0       0       0       0       0       0       0
       0       0       0       0       0       0       0       0
       0       0       0       0       0       0       0       0
       0       0       0       0       0       0       0       0
       0       0       0       0       0       0       0       0
       0       0       0       0       0       0       0       0
       0       0       0       0       0       0       0       0
       0       0       0       0       0       0       0       0
       0       0       0       0       0       0       0       0
       0       0       0       0       0       0       0       0
       0       0       0       0       0       0       0       0
       0       0       0       0       0       0       0       0
       0       0       0       0       0       0       0       0
       0       0       0       0       0       0       0       0
       0       0       0       0       0       0       0       0
       0       0       0       0       0       0       0       0
       0       0       0       0       0       0       0       0
       0       0       0       0       0       0       0       0
       0       0       0       0       0       0       0       0
       0       0       0       0       0       0       0       0
       0       0       0       0       0       0       0       0
       0       0       0       0       0       0       0       0
       0       0       0       0       0       0       0       0
       0       0       0       0       0       0       0       0
       0       0       0       0       0       0       0       0
       0       0       0       0       0       0       0       0
       0       0       0       0       0       0       0       0
       0       0       0       0       0       0       0       0
       0       0       0       0       0       0       0       0
       0       0       0       0       0       0       0       0
       0       0       0       0       0       0       0       0
       0       0       0       0       0       0       0       0
       0       0       0       0       0       0       0       0
       0       0       0       0       0       0       0       0
       0       0       0       0       0       0       0       0
       0       0       0       0       0       0       0       0
       0       0       0       0       0       0       0       0
       0       0       0       0       0       0       0       0
       0       0       0       0       0       0       0       0
       0       0       0       0       0       0       0       0
       0       0       0       0       0       0       0       0
       0       0       0       0       0       0       0       0
       0       0       0       0       0       0       0       0
       0       0       0       0       0       0       0       0
       0       0       0       0       0       0       0       0
       0       0       0       0       0       0       0       0
       0       0       0       0       0       0       0       0
       0       0       0       0       0       0       0       0
       0       0       0       0       0       0       0       0
       0       0       0       0       0       0       0       0
       0       0       0       0       0       0       0       0
       0       0       0       0       0       0       0       0
       0       0       0       0       0       0       0       0
       0       0       0       0       0       0       0       0
       0       0       0       0       0       0       0       0
       0       0       0       0       0       0       0       0
       0       0       0       0       0       0       0       0
       0       0       0       0       0       0       0       0
       0       0       0       0       0       0       0       0
       0       0       0       0       0       0       0       0
       0       0       0       0       0       0       0       0
       0       0       0       0       0       0       0       0
       0       0       0       0       0       0       0       0
       0       0       0       0       0       0       0       0
       0       0       0       0       0       0       0       0
       0       0       0       0       0       0       0       0
       0       0       0       0       0       0       0       0
       0       0       0       0       0       0       0       0
       0       0       0       0       0       0       0       0
       0       0       0       0       0       0       0       0
       0       0       0       0       0       0       0       0
       0       0       0       0       0       0       0       0
       0       0       0       0       0       0       0       0
       0       0       0       0       0       0       0       0
       0       0       0       0       0       0       0       0
       0       0       0       0       0       0       0       0
       0       0       0       0       0       0       0       0
       0       0       0       0       0       0       0       0
       0       0       0       0       0       0       0       0
       0       0       0       0       0       0       0       0
       0       0       0       0       0       0       0       0
       0       0       0       0       0       0       0       0
       0       0       0       0       0       0       0       0
       0       0       0       0       0       0       0       0
       0       0       0       0       0       0       0       0
       0       0       0       0       0       0       0       0
       0       0       0       0       0       0       0       0
       0       0       0       0       0       0       0       0
       0       0       0       0       0       0       0       0
       0       0       0       0       0       0       0       0
       0       0       0       0       0       0       0       0
       0       0       0       0       0       0       0       0
       0       0       0       0       0       0       0       0
       0       0       0       0       0       0       0       0
       0       0       0       0       0       0       0       0
       0       0       0       0       0       0       0       0
       0       0       0       0       0       0       0       0
       0       0       0       0       0       0       0       0
       0       0       0       0       0       0       0       0
       0       0       0       0       0       0       0       0
       0       0       0       0       0       0       0       0
       0       0       0       0       0       0       0       0
       0       0       0       0       0       0       0       0
       0       0       0       0       0       0       0       0
       0       0       0       0       0       0       0       0
       0       0       0       0       0       0       0       0
       0       0       0       0       0       0       0       0
       0       0       0       0       0       0       0       0
       0       0       0       0       0       0       0       0
       0       0       0       0       0       0       0       0
       0       0       0       0       0       0       0       0
       0       0       0       0       0       0       0       0
       0       0       0       0       0       0       0       0
       0       0       0       0       0       0       0       0
       0       0       0       0       0       0       0       0
       0       0       0       0       0       0       0       0
       0       0       0       0       0       0       0       0
       0       0       0       0       0       0       0       0
       0       0       0       0       0       0       0       0
       0       0       0       0       0       0       0       0
       0       0       0       0       0       0       0       0
       0       0       0       0       0       0       0       0
       0       0       0       0       0       0       0       0
       0       0       0       0       0       0       0       0
       0       0       0       0       0       0       0       0
       0       0       0       0       0       0       0       0
       0       0       0       0       0       0       0       0
       0       0       0       0       0       0       0       0
       0       0       0       0       0       0       0       0
       0       0       0       0       0       0       0       0
       0       0       0       0       0       0       0       0
       0       0       0       0       0       0       0       0
       0       0       0       0       0       0       0       0
       0       0       0       0       0       0       0       0
       0       0       0       0       0       0       0       0
       0       0       0       0       0       0       0       0
       0       0       0       0       0       0       0       0
       0       0       0       0       0       0       0       0
       0       0       0       0       0       0       0       0
       0       0       0       0       0       0       0       0
       0       0       0       0       0       0       0       0
       0       0       0       0       0       0       0       0
       0       0       0       0       0       0       0       0
       0       0       0       0       0       0       0       0
       0       0       0       0       0       0       0       0
       0       0       0       0       0       0       0       0
       0       0       0       0       0       0       0       0
       0       0       0       0       0       0       0       0
       0       0       0       0       0       0       0       0
       0       0       0       0       0       0       0       0
       0       0       0       0       0       0       0       0
       0       0       0       0       0       0       0       0
       0       0       0       0       0       0       0       0
       0       0       0       0       0       0       0       0
       0       0       0       0       0       0       0       0
       0       0       0       0       0       0       0       0
       0       0       0       0       0       0       0       0
       0       0       0       0       0       0       0       0
       0       0       0       0       0       0       0       0
       0       0       0       0       0       0       0       0
       0       0       0       0       0       0       0       0
       0       0       0       0       0       0       0       0
       0       0       0       0       0       0       0       0
       0       0       0       0       0       0       0       0
       0       0       0       0       0       0       0       0
       0       0       0       0       0       0       0       0
       0       0       0       0       0       0       0       0
       0       0       0       0       0       0       0       0
       0       0       0       0       0       0       0       0
       0       0       0       0       0       0       0       0
       0       0       0       0       0       0       0       0
       0       0       0       0       0       0       0       0
       0       0       0       0       0       0       0       0
       0       0       0       0       0       0       0       0
       0       0       0       0       0       0       0       0
       0       0       0       0       0       0       0       0
       0       0       0       0       0       0       0       0
       0       0       0       0       0       0       0       0
       0       0       0       0       0       0       0       0
       0       0       0       0       0       0       0       0
       0       0       0       0       0       0       0       0
       0       0       0       0       0       0       0       0
       0       0       0       0       0       0       0       0
       0       0       0       0       0       0       0       0
       0       0       0       0       0       0       0       0
       0       0       0       0       0       0       0       0
       0       0       0       0       0       0       0       0
       0       0       0       0       0       0       0       0
       0       0       0       0       0       0       0       0
       0       0       0       0       0       0       0       0
       0       0       0       0       0       0       0       0
       0       0       0       0       0       0       0       0
       0       0       0       0       0       0       0       0
       0       0       0       0       0       0       0       0
       0       0       0       0       0       0       0       0
       0       0       0       0       0       0       0       0
       0       0       0       0       0       0       0       0
       0       0       0       0       0       0       0       0
       0       0       0       0       0       0       0       0
       0       0       0       0       0       0       0       0
       0       0       0       0       0       0       0       0
       0       0       0       0       0       0       0       0
       0       0       0       0       0       0       0       0
       0       0       0       0       0       0       0       0
       0       0       0       0       0       0       0       0
       0       0       0       0       0       0       0       0
       0       0       0       0       0       0       0       0
       0       0       0       0       0       0       0       0
       0       0       0       0       0       0       0       0
       0       0       0       0       0       0       0       0
       0       0       0       0       0       0       0       0
       0       0       0       0       0       0       0       0
       0       0       0       0       0       0       0       0
       0       0       0       0       0       0       0       0
       0       0       0       0       0       0       0       0
       0       0       0       0       0       0       0       0
       0       0       0       0       0       0       0       0
       0       0       0       0       0       0       0       0
       0       0       0       0       0       0       0       0
       0       0       0       0       0       0       0       0
       0       0       0       0       0       0       0       0
       0       0       0       0       0       0       0       0
       0       0       0       0       0       0       0       0
       0       0       0       0       0       0       0       0
       0       0       0       0       0       0       0       0
       0       0       0       0       0       0       0       0
       0       0       0       0       0       0       0       0
       0       0       0       0       0       0       0       0
       0       0       0       0       0       0       0       0
       0       0       0       0       0       0       0       0
       0       0       0       0       0       0       0       0
       0       0       0       0       0       0       0       0
       0       0       0       0       0       0       0       0
       0       0       0       0       0       0       0       0
       0       0       0       0       0       0       0       0
       0       0       0       0       0       0       0       0
       0       0       0       0       0       0       0       0
       0       0       0       0       0       0       0       0
       0       0       0       0       0       0       0       0
       0       0       0       0       0       0       0       0
       0       0       0       0       0       0       0       0
       0       0       0       0       0       0       0       0
       0       0       0       0       0       0       0       0
       0       0       0       0       0       0       0       0
       0       0       0       0       0       0       0       0
       0       0       0       0       0       0       0       0
       0       0       0       0       0       0       0       0
       0       0       0       0       0       0       0       0
       0       0       0       0       0       0       0       0
       0       0       0       0       0       0       0       0
       0       0       0       0       0       0       0       0
       0       0       0       0       0       0       0       0
       0       0       0       0       0       0       0       0
       0       0       0       0       0       0       0       0
       0       0       0       0       0       0       0       0
       0       0       0       0       0       0       0       0
       0       0       0       0       0       0       0       0
       0       0       0       0       0       0       0       0
       0       0       0       0       0       0       0       0
       0       0       0       0       0       0       0       0
       0       0       0       0       0       0       0       0
       0       0       0       0       0       0       0       0
       0       0       0       0       0       0       0       0
       0       0       0       0       0       0       0       0
       0       0       0       0       0       0       0       0
       0       0       0       0       0       0       0       0
       0       0       0       0       0       0       0       0
       0       0       0       0       0       0       0       0
       0       0       0       0       0       0       0       0
       0       0       0       0       0       0       0       0
       0       0       0       0       0       0       0       0
       0       0       0       0       0       0       0       0
       0       0       0       0       0       0       0       0
       0       0       0       0       0       0       0       0
       0       0       0       0       0       0       0       0
       0       0       0       0       0       0       0       0
       0       0       0       0       0       0       0       0
       0       0       0       0       0       0       0       0
       0       0       0       0       0       0       0       0
       0       0       0       0       0       0       0       0
       0       0       0       0       0       0       0       0
       0       0       0       0       0       0       0       0
       0       0       0       0       0       0       0       0
       0       0       0       0       0       0       0       0
       0       0       0       0       0       0       0       0
       0       0       0       0       0       0       0       0
       0       0       0       0       0       0       0       0
       0       0       0       0       0       0       0       0
       0       0       0       0       0       0       0       0
       0       0       0       0       0       0       0       0
       0       0       0       0       0       0       0       0
       0       0       0       0       0       0       0       0
       0       0       0       0       0       0       0       0
       0       0       0       0       0       0       0       0
       0       0       0       0       0       0       0       0
       0       0       0       0       0       0       0       0
       0       0       0       0       0       0       0       0
       0       0       0       0       0       0       0       0
       0       0       0       0       0       0       0       0
       0       0       0       0       0       0       0       0
       0       0       0       0       0       0       0       0
       0       0       0       0       0       0       0       0
       0       0       0       0       0       0       0       0
       0       0       0       0       0       0       0       0
       0       0       0       0       0       0       0       0
       0       0       0       0       0       0       0       0
       0       0       0       0       0       0       0       0
       0       0       0       0       0       0       0       0
       0       0       0       0       0       0       0       0
       0       0       0       0       0       0       0       0
       0       0       0       0       0       0       0       0
       0       0       0       0       0       0       0       0
       0       0       0       0       0       0       0       0
       0       0       0       0       0       0       0       0
       0       0       0       0       0       0       0       0
       0       0       0       0       0       0       0       0
       0       0       0       0       0       0       0       0
       0       0       0       0       0       0       0       0
       0       0       0       0       0       0       0       0
       0       0       0       0       0       0       0       0
       0       0       0       0       0       0       0       0
       0       0       0       0       0       0       0       0
       0       0       0       0       0       0       0       0
       0       0       0       0       0       0       0       0
       0       0       0       0       0       0       0       0
       0       0       0       0       0       0       0       0
       0       0       0       0       0       0       0       0
       0       0       0       0       0       0       0       0
       0       0       0       0       0       0       0       0
       0       0       0       0       0       0       0       0
       0       0       0       0       0       0       0       0
       0       0       0       0       0       0       0       0
       0       0       0       0       0       0       0       0
       0       0       0       0       0       0       0       0
       0       0       0       0       0       0       0       0
       0       0       0       0       0       0       0       0
       0       0       0       0       0       0       0       0
       0       0       0       0       0       0       0       0
       0       0       0       0       0       0       0       0
       0       0       0       0       0       0       0       0
       0       0       0       0       0       0       0       0
       0       0       0       0       0       0       0       0
       0       0       0       0       0       0       0       0
       0       0       0       0       0       0       0       0
       0       0       0       0       0       0       0       0
       0       0       0       0       0       0       0       0
       0       0       0       0       0       0       0       0
       0       0       0       0       0       0       0       0
       0       0       0       0       0       0       0       0
       0       0       0       0       0       0       0       0
       0       0       0       0       0       0       0       0
       0       0       0       0       0       0       0       0
       0       0       0       0       0       0       0       0
       0       0       0       0       0       0       0       0
       0       0       0       0       0       0       0       0
       0       0       0       0       0       0       0       0
       0       0       0       0       0       0       0       0
       0       0       0       0       0       0       0       0
       0       0       0       0       0       0       0       0
       0       0       0       0       0       0       0       0
       0       0       0       0       0       0       0       0
       0       0       0       0       0       0       0       0
       0       0       0       0       0       0       0       0
       0       0       0       0       0       0       0       0


       1       0 !NGRP
       0       0       0

